                  Welcome to Q-Chem
     A Quantum Leap Into The Future Of Chemistry


 Q-Chem 4.3 (beta), Q-Chem, Inc., Pleasanton, CA (2015)

 Y. Shao,  Z. Gan,  E. Epifanovsky,  A. T. B. Gilbert,  M. Wormit,  
 J. Kussmann,  A. W. Lange,  A. Behn,  J. Deng,  X. Feng,  D. Ghosh,  
 M. Goldey,  P. R. Horn,  L. D. Jacobson,  I. Kaliman,  R. Z. Khaliullin,  
 T. Kus,  A. Landau,  J. Liu,  E. I. Proynov,  Y. M. Rhee,  R. M. Richard,  
 M. A. Rohrdanz,  R. P. Steele,  E. J. Sundstrom,  H. L. Woodcock III,  
 P. M. Zimmerman,  D. Zuev,  B. Albrecht,  E. Alguire,  B. Austin,  
 S. A. Baeppler,  G. J. O. Beran,  Y. A. Bernard,  E. Berquist,  
 K. Brandhorst,  K. B. Bravaya,  S. T. Brown,  D. Casanova,  C.-M. Chang,  
 Y. Chen,  S. H. Chien,  K. D. Closser,  D. L. Crittenden,  M. Diedenhofen,  
 R. A. DiStasio Jr.,  H. Do,  A. D. Dutoi,  R. G. Edgar,  P.-T. Fang,  
 S. Fatehi,  Q. Feng,  L. Fusti-Molnar,  A. Ghysels,  
 A. Golubeva-Zadorozhnaya,  J. Gomes,  A. Gunina,  M. W. D. Hanson-Heine,  
 P. H. P. Harbach,  A. W. Hauser,  E. G. Hohenstein,  Z. C. Holden,  K. Hui,  
 T.-C. Jagau,  H. Ji,  B. Kaduk,  K. Khistyaev,  Jaehoon Kim,  Jihan Kim,  
 R. A. King,  P. Klunzinger,  D. Kosenkov,  T. Kowalczyk,  C. M. Krauter,  
 K. U. Lao,  A. Laurent,  K. V. Lawler,  S. Lehtola,  S. V. Levchenko,  
 C. Y. Lin,  Y.-S. Lin,  F. Liu,  E. Livshits,  R. C. Lochan,  A. Luenser,  
 P. Manohar,  S. F. Manzer,  S.-P. Mao,  N. Mardirossian,  A. V. Marenich,  
 L. A. Martinez-Martinez,  S. A. Maurer,  N. J. Mayhall,  K. Nanda,  
 C. M. Oana,  R. Olivares-Amaya,  D. P. O'Neill,  J. A. Parkhill,  
 T. M. Perrine,  R. Peverati,  P. A. Pieniazek,  F. Plasser,  A. Prociuk,  
 D. R. Rehn,  E. Rosta,  N. J. Russ,  N. Sergueev,  S. M. Sharada,  
 S. Sharma,  D. W. Small,  A. Sodt,  T. Stauch,  T. Stein,  D. Stuck,  
 Y.-C. Su,  A. J. W. Thom,  T. Tsuchimochi,  L. Vogt,  O. Vydrov,  T. Wang,  
 M. A. Watson,  J. Wenzel,  A. White,  C. F. Williams,  V. Vanovschi,  
 S. Yeganeh,  S. R. Yost,  Z.-Q. You,  I. Y. Zhang,  X. Zhang,  Y. Zhao,  
 B. R. Brooks,  G. K. L. Chan,  D. M. Chipman,  C. J. Cramer,  
 W. A. Goddard III,  M. S. Gordon,  W. J. Hehre,  A. Klamt,  
 H. F. Schaefer III,  M. W. Schmidt,  C. D. Sherrill,  D. G. Truhlar,  
 A. Warshel,  X. Xu,  A. Aspuru-Guzik,  R. Baer,  A. T. Bell,  N. A. Besley,  
 J.-D. Chai,  A. Dreuw,  B. D. Dunietz,  T. R. Furlani,  S. R. Gwaltney,  
 C.-P. Hsu,  Y. Jung,  J. Kong,  D. S. Lambrecht,  W. Liang,  C. Ochsenfeld,  
 V. A. Rassolov,  L. V. Slipchenko,  J. E. Subotnik,  T. Van Voorhis,  
 J. M. Herbert,  A. I. Krylov,  P. M. W. Gill,  M. Head-Gordon

 Contributors to earlier versions of Q-Chem not listed above: 
 R. D. Adamson,  J. Baker,  E. F. C. Byrd,  A. K. Chakraborty,  C.-L. Cheng,  
 H. Dachsel,  R. J. Doerksen,  G. Hawkins,  A. Heyden,  S. Hirata,  
 G. Kedziora,  F. J. Keil,  C. Kelley,  P. P. Korambath,  W. Kurlancheek,  
 A. M. Lee,  M. S. Lee,  D. Liotard,  I. Lotan,  P. E. Maslen,  N. Nair,  
 D. Neuhauser,  R. Olson,  B. Peters,  J. Ritchie,  N. E. Schultz,  
 N. Shenvi,  A. C. Simmonett,  K. S. Thanthiriwatte,  Q. Wu,  W. Zhang

 Please cite Q-Chem as follows:
 Y. Shao et al., Mol. Phys. 113, 184-215 (2014)
 DOI: 10.1080/00268976.2014.952696

 Q-Chem 4.3.0 for Intel X86 EM64T Linux

 Parts of Q-Chem use Armadillo 4.550.3 (Singapore Sling Deluxe).
 http://arma.sourceforge.net/

 Q-Chem begins on Tue Apr 21 13:28:15 2015  

Host: n161
0

     Scratch files written to /scratch/2820957.clusman0a.frank.sam.pitt.edu/6.omegab97x-d_fsm-ts.b1491b66b9c9476296534ad917443737//
 Mar1615 |home|dlambrecht|erb74|opt|apps|qchem|trunk_RNUM -1

Checking the input file for inconsistencies...	...done.

--------------------------------------------------------------
User input:
--------------------------------------------------------------
$molecule
0 2
    C -0.54525  -0.02134  -0.15418
    O 2.64193   -0.02333  -0.57887
    O -1.29138  -0.02192  -1.04463
    C -0.91368  -0.01195  1.26005
    Si -2.74244  0.04378   1.69289
    H -3.43059  -1.15320  1.15281
    H -3.35934  1.26986   1.13144
    H -2.86403  0.06134   3.16855
    H -0.13166  -0.04330  2.00974
    C 3.04928   -0.02731  -1.88877
    H 4.15950   0.08397   -1.87679
    H 2.62145   0.80931   -2.46465
    H 2.80531   -0.96593  -2.40735
$end

$rem
    jobtype                     freq
    exchange                    omegab97x-d
    basis                       6-31G**
    unrestricted                true
    scf_max_cycles              300
    scf_algorithm               diis_gdm
$end

--------------------------------------------------------------
 ----------------------------------------------------------------
             Standard Nuclear Orientation (Angstroms)
    I     Atom           X                Y                Z
 ----------------------------------------------------------------
    1      C       0.0530537354    -0.3454181801    -0.0181445541
    2      O      -2.9423139728     0.8233133599    -0.0002339837
    3      O       0.2758931681    -1.4855551403    -0.0116781088
    4      C       1.0591319062     0.7145818539    -0.0271983901
    5      Si      2.8697827035     0.2100095291     0.0148717377
    6      H       3.1994620658    -0.6050779298    -1.1788375660
    7      H       3.1505122070    -0.5697301014     1.2446119271
    8      H       3.6895406727     1.4431606062     0.0144131418
    9      H       0.7365355603     1.7485876701    -0.0637602360
   10      C      -3.9319906091    -0.1265014447     0.0131774081
   11      H      -4.8970143773     0.4215093475     0.1294895126
   12      H      -3.8275670928    -0.8306392939     0.8545423268
   13      H      -3.9782306416    -0.7059828387    -0.9203734770
 ----------------------------------------------------------------
 Molecular Point Group                 C1    NOp =  1
 Largest Abelian Subgroup              C1    NOp =  1
 Nuclear Repulsion Energy =   241.9305182635 hartrees
 There are       28 alpha and       27 beta electrons
 Requested basis set is 6-31G(d,p)
 There are 46 shells and 129 basis functions

Total QAlloc Memory Limit   2000 MB
Mega-Array Size        77 MB
MEM_STATIC part        62 MB

                       Distance Matrix (Angstroms)
             C (  1)   O (  2)   O (  3)   C (  4)   Si(  5)   H (  6)
   O (  2)  3.215351
   O (  3)  1.161728  3.960791
   C (  4)  1.461463  4.003014  2.335446
   Si(  5)  2.871159  5.844385  3.099017  1.880112
   H (  6)  3.363706  6.414891  3.268755  2.765644  1.482565
   H (  7)  3.352479  6.372813  3.268093  2.764205  1.482924  2.424202
   H (  8)  4.052667  6.660775  4.497894  2.729764  1.480765  2.420600
   H (  9)  2.203200  3.793956  3.267198  1.083777  2.631378  3.584571
   C ( 10)  3.991176  1.371783  4.421983  5.061655  6.810093  7.246210
   H ( 11)  5.011302  1.999782  5.515052  5.965410  7.770522  8.265503
   H ( 12)  4.007024  2.061522  4.244719  5.200481  6.829531  7.318788
   H ( 13)  4.146719  2.063620  4.419392  5.309500  6.972016  7.183054
             H (  7)   H (  8)   H (  9)   C ( 10)   H ( 11)   H ( 12)
   H (  8)  2.419849
   H (  9)  3.593566  2.969787
   C ( 10)  7.202411  7.781490  5.031602
   H ( 11)  8.184665  8.647887  5.790973  1.115847
   H ( 12)  6.993841  7.898284  5.322286  1.102093  1.799249
   H ( 13)  7.451490  8.017940  5.384025  1.099752  1.793771  1.785655

 
 A cutoff of  1.0D-12 yielded    803 shell pairs
 There are      6761 function pairs
 
 -------------------------------------------------------
 OpenMP Integral Computing Module                       
 Release: version 1.0, May 2013, Q-Chem Inc. Pittsburgh 
 -------------------------------------------------------
 Integral Job Info:
 Integral job number is                      11
 Integral operator is                         1
 short-range coefficients              22203600
 long-range coefficients              100000000
 Omega coefficients                         200
 if combine SR and LR in K              -999999
 Integral screening is                        0
 Integral computing path is                   2
 max size of driver memory is            800000
 size of driver memory is                593474
 size of scratch memory is             15166112
 max col of scratch BK array               1296
 max len of scratch array in speh3          155
 max len of scratch index in speh4           18
 max int batch size is                      520
 min int batch size is                       52
 fixed nKL is                                52
 max L of basis functions is                  2
 order of int derivative is                   0
 number of shells is                         46
 number of basis is                         129
 number of cartesian basis is               129
 number of contracted shell pairs           803
 number of primitive shell pairs           2933
 maxK2 (contraction) of shell pair           36
 max number of K2 of shell pair               1
 max number of CS2 of shell pair             74
 max number of PS2 of shell pair            306
 mem total for path MDJ                   19960
 -------------------------------------------------------
 Smallest overlap matrix eigenvalue = 4.75E-03
 Guess from superposition of atomic densities
 Warning:  Energy on first SCF cycle will be non-variational
 Long-range K will be added via erf
 Coulomb attenuation parameter = 0.2 bohr**(-1)
 An unrestricted hybrid HF-DFT SCF calculation will be
 performed using Pulay DIIS + Geometric Direct Minimization
 Exchange:     0.2220 Hartree-Fock + 1.0000 wB97X-D + LR-HF
 Correlation:  1.0000 wB97X-D
 Using SG-1 standard quadrature grid
 SCF converges when RMS gradient is below 1.0E-08
 CPU 0.00 s  wall 0.00 s
 CPU 1.24 s  wall 1.25 s

 Total DFTman time = 1.24 CPUs 1.25 Wall
 ---------------------------------------
  Cycle       Energy         DIIS Error
 ---------------------------------------
    1    -558.7424647284      5.58E-02
 CPU 0.00 s  wall 0.00 s
 CPU 1.11 s  wall 1.12 s

 Total DFTman time = 1.11 CPUs 1.12 Wall
    2    -557.7867290673      1.10E-02
 CPU 0.00 s  wall 0.00 s
 CPU 1.11 s  wall 1.11 s

 Total DFTman time = 1.11 CPUs 1.11 Wall
    3    -550.2278547484      3.52E-02
 CPU 0.00 s  wall 0.00 s
 CPU 1.11 s  wall 1.11 s

 Total DFTman time = 1.11 CPUs 1.11 Wall
    4    -557.8497859637      9.64E-03 Done DIIS. Switching to GDM
 CPU 0.00 s  wall 0.00 s
 CPU 1.09 s  wall 1.09 s

 Total DFTman time = 1.09 CPUs 1.09 Wall
    5    -557.9733388385      2.23E-01 Descent step
 CPU 0.00 s  wall 0.00 s
 CPU 1.11 s  wall 1.11 s

 Total DFTman time = 1.11 CPUs 1.11 Wall
    6    -558.0587852270      7.87E-02 Normal BFGS step
 CPU 0.00 s  wall 0.00 s
 CPU 1.09 s  wall 1.09 s

 Total DFTman time = 1.09 CPUs 1.09 Wall
    7    -558.0891591264      9.31E-02 Normal BFGS step
 CPU 0.00 s  wall 0.00 s
 CPU 1.10 s  wall 1.10 s

 Total DFTman time = 1.10 CPUs 1.10 Wall
    8    -558.0894494797      1.46E-01 Normal BFGS step
 CPU 0.00 s  wall 0.00 s
 CPU 1.09 s  wall 1.09 s

 Total DFTman time = 1.09 CPUs 1.09 Wall
    9    -558.1035638902      1.29E-02 Normal BFGS step
 CPU 0.00 s  wall 0.00 s
 CPU 1.08 s  wall 1.09 s

 Total DFTman time = 1.08 CPUs 1.09 Wall
   10    -558.1045002729      6.18E-03 Normal BFGS step
 CPU 0.00 s  wall 0.00 s
 CPU 1.07 s  wall 1.07 s

 Total DFTman time = 1.07 CPUs 1.07 Wall
   11    -558.1049317702      4.30E-03 Normal BFGS step
 CPU 0.00 s  wall 0.00 s
 CPU 1.06 s  wall 1.06 s

 Total DFTman time = 1.06 CPUs 1.06 Wall
   12    -558.1049908601      6.31E-03 Normal BFGS step
 CPU 0.00 s  wall 0.00 s
 CPU 1.07 s  wall 1.08 s

 Total DFTman time = 1.07 CPUs 1.08 Wall
   13    -558.1051747087      1.49E-02 Line search: understep
 CPU 0.00 s  wall 0.00 s
 CPU 1.10 s  wall 1.10 s

 Total DFTman time = 1.10 CPUs 1.10 Wall
   14    -558.1039890885      4.30E-02 Line search: overstep
 CPU 0.00 s  wall 0.00 s
 CPU 1.10 s  wall 1.10 s

 Total DFTman time = 1.10 CPUs 1.10 Wall
   15    -558.1055022551      2.75E-02 Line search: understep
 CPU 0.00 s  wall 0.00 s
 CPU 1.10 s  wall 1.11 s

 Total DFTman time = 1.10 CPUs 1.11 Wall
   16    -558.1046154947      4.39E-02 Line search: overstep
 CPU 0.00 s  wall 0.00 s
 CPU 1.10 s  wall 1.10 s

 Total DFTman time = 1.10 CPUs 1.10 Wall
   17    -558.1056205656      3.15E-02 Line search: understep
 CPU 0.00 s  wall 0.00 s
 CPU 1.10 s  wall 1.10 s

 Total DFTman time = 1.10 CPUs 1.10 Wall
   18    -558.1050112913      1.25E-01 Descent step
 CPU 0.00 s  wall 0.00 s
 CPU 1.07 s  wall 1.07 s

 Total DFTman time = 1.07 CPUs 1.07 Wall
   19    -558.1096718884      8.61E-02 Dog-leg BFGS step
 CPU 0.00 s  wall 0.00 s
 CPU 1.10 s  wall 1.10 s

 Total DFTman time = 1.10 CPUs 1.10 Wall
   20    -558.1421743677      7.25E-02 Dog-leg BFGS step
 CPU 0.00 s  wall 0.00 s
 CPU 1.10 s  wall 1.10 s

 Total DFTman time = 1.10 CPUs 1.10 Wall
   21    -558.1437888311      1.23E-01 Dog-leg BFGS step
 CPU 0.00 s  wall 0.00 s
 CPU 1.10 s  wall 1.10 s

 Total DFTman time = 1.10 CPUs 1.10 Wall
   22    -558.1486501653      5.29E-02 Dog-leg BFGS step
 CPU 0.00 s  wall 0.00 s
 CPU 1.10 s  wall 1.11 s

 Total DFTman time = 1.10 CPUs 1.11 Wall
   23    -558.1463019019      2.59E-01 Line search: overstep
 CPU 0.00 s  wall 0.00 s
 CPU 1.10 s  wall 1.10 s

 Total DFTman time = 1.10 CPUs 1.10 Wall
   24    -558.1578268858      3.03E-02 Dog-leg BFGS step
 CPU 0.00 s  wall 0.00 s
 CPU 1.09 s  wall 1.09 s

 Total DFTman time = 1.09 CPUs 1.09 Wall
   25    -558.1616918633      2.39E-02 Normal BFGS step
 CPU 0.00 s  wall 0.00 s
 CPU 1.08 s  wall 1.08 s

 Total DFTman time = 1.08 CPUs 1.08 Wall
   26    -558.1628016620      1.45E-02 Normal BFGS step
 CPU 0.00 s  wall 0.00 s
 CPU 1.11 s  wall 1.11 s

 Total DFTman time = 1.11 CPUs 1.11 Wall
   27    -558.1653014798      3.17E-02 Normal BFGS step
 CPU 0.00 s  wall 0.00 s
 CPU 1.10 s  wall 1.10 s

 Total DFTman time = 1.10 CPUs 1.10 Wall
   28    -558.1677739037      2.93E-02 Normal BFGS step
 CPU 0.00 s  wall 0.00 s
 CPU 1.08 s  wall 1.09 s

 Total DFTman time = 1.08 CPUs 1.09 Wall
   29    -558.1695485332      2.48E-02 Normal BFGS step
 CPU 0.00 s  wall 0.00 s
 CPU 1.09 s  wall 1.09 s

 Total DFTman time = 1.09 CPUs 1.09 Wall
   30    -558.1715906028      1.24E-02 Normal BFGS step
 CPU 0.00 s  wall 0.00 s
 CPU 1.10 s  wall 1.10 s

 Total DFTman time = 1.10 CPUs 1.10 Wall
   31    -558.1719657990      6.31E-03 Normal BFGS step
 CPU 0.00 s  wall 0.00 s
 CPU 1.07 s  wall 1.08 s

 Total DFTman time = 1.07 CPUs 1.08 Wall
   32    -558.1722733095      6.44E-03 Normal BFGS step
 CPU 0.00 s  wall 0.00 s
 CPU 1.07 s  wall 1.07 s

 Total DFTman time = 1.07 CPUs 1.07 Wall
   33    -558.1723877600      4.13E-03 Normal BFGS step
 CPU 0.00 s  wall 0.00 s
 CPU 1.05 s  wall 1.05 s

 Total DFTman time = 1.05 CPUs 1.05 Wall
   34    -558.1724421800      3.62E-03 Normal BFGS step
 CPU 0.00 s  wall 0.00 s
 CPU 1.05 s  wall 1.06 s

 Total DFTman time = 1.05 CPUs 1.06 Wall
   35    -558.1724813577      3.36E-03 Normal BFGS step
 CPU 0.00 s  wall 0.00 s
 CPU 1.05 s  wall 1.05 s

 Total DFTman time = 1.05 CPUs 1.05 Wall
   36    -558.1725342504      2.29E-03 Normal BFGS step
 CPU 0.00 s  wall 0.00 s
 CPU 1.04 s  wall 1.05 s

 Total DFTman time = 1.04 CPUs 1.05 Wall
   37    -558.1725848601      2.00E-03 Normal BFGS step
 CPU 0.00 s  wall 0.00 s
 CPU 1.04 s  wall 1.05 s

 Total DFTman time = 1.04 CPUs 1.05 Wall
   38    -558.1726188647      9.35E-04 Normal BFGS step
 CPU 0.00 s  wall 0.00 s
 CPU 1.03 s  wall 1.03 s

 Total DFTman time = 1.03 CPUs 1.03 Wall
   39    -558.1726290688      4.75E-04 Normal BFGS step
 CPU 0.00 s  wall 0.00 s
 CPU 1.01 s  wall 1.02 s

 Total DFTman time = 1.01 CPUs 1.02 Wall
   40    -558.1726310702      4.54E-04 Normal BFGS step
 CPU 0.00 s  wall 0.00 s
 CPU 1.01 s  wall 1.01 s

 Total DFTman time = 1.01 CPUs 1.01 Wall
   41    -558.1726321131      4.39E-04 Normal BFGS step
 CPU 0.00 s  wall 0.00 s
 CPU 1.00 s  wall 1.01 s

 Total DFTman time = 1.00 CPUs 1.01 Wall
   42    -558.1726330438      4.42E-04 Normal BFGS step
 CPU 0.00 s  wall 0.00 s
 CPU 1.01 s  wall 1.01 s

 Total DFTman time = 1.01 CPUs 1.01 Wall
   43    -558.1726342965      4.51E-04 Normal BFGS step
 CPU 0.00 s  wall 0.00 s
 CPU 1.01 s  wall 1.02 s

 Total DFTman time = 1.01 CPUs 1.02 Wall
   44    -558.1726362268      4.45E-04 Normal BFGS step
 CPU 0.00 s  wall 0.00 s
 CPU 1.03 s  wall 1.03 s

 Total DFTman time = 1.03 CPUs 1.03 Wall
   45    -558.1726396568      5.30E-04 Normal BFGS step
 CPU 0.00 s  wall 0.00 s
 CPU 1.03 s  wall 1.03 s

 Total DFTman time = 1.03 CPUs 1.03 Wall
   46    -558.1726457735      8.70E-04 Normal BFGS step
 CPU 0.00 s  wall 0.00 s
 CPU 1.03 s  wall 1.03 s

 Total DFTman time = 1.03 CPUs 1.03 Wall
   47    -558.1726550119      1.09E-03 Normal BFGS step
 CPU 0.00 s  wall 0.00 s
 CPU 1.04 s  wall 1.04 s

 Total DFTman time = 1.04 CPUs 1.04 Wall
   48    -558.1726654989      1.02E-03 Normal BFGS step
 CPU 0.00 s  wall 0.00 s
 CPU 1.04 s  wall 1.04 s

 Total DFTman time = 1.04 CPUs 1.04 Wall
   49    -558.1726734569      4.67E-04 Normal BFGS step
 CPU 0.00 s  wall 0.00 s
 CPU 1.03 s  wall 1.03 s

 Total DFTman time = 1.03 CPUs 1.03 Wall
   50    -558.1726764474      3.47E-04 Normal BFGS step
 CPU 0.00 s  wall 0.00 s
 CPU 1.02 s  wall 1.02 s

 Total DFTman time = 1.02 CPUs 1.02 Wall
   51    -558.1726771578      1.35E-04 Normal BFGS step
 CPU 0.00 s  wall 0.00 s
 CPU 1.01 s  wall 1.01 s

 Total DFTman time = 1.01 CPUs 1.01 Wall
   52    -558.1726773223      1.04E-04 Normal BFGS step
 CPU 0.00 s  wall 0.00 s
 CPU 0.99 s  wall 0.99 s

 Total DFTman time = 0.99 CPUs 0.99 Wall
   53    -558.1726773610      7.57E-05 Normal BFGS step
 CPU 0.00 s  wall 0.00 s
 CPU 0.97 s  wall 0.97 s

 Total DFTman time = 0.97 CPUs 0.97 Wall
   54    -558.1726773765      3.99E-05 Normal BFGS step
 CPU 0.00 s  wall 0.00 s
 CPU 0.96 s  wall 0.96 s

 Total DFTman time = 0.96 CPUs 0.96 Wall
   55    -558.1726773828      1.31E-05 Normal BFGS step
 CPU 0.00 s  wall 0.00 s
 CPU 0.96 s  wall 0.97 s

 Total DFTman time = 0.96 CPUs 0.97 Wall
   56    -558.1726773852      8.65E-06 Normal BFGS step
 CPU 0.00 s  wall 0.00 s
 CPU 0.94 s  wall 0.94 s

 Total DFTman time = 0.94 CPUs 0.94 Wall
   57    -558.1726773856      3.87E-06 Normal BFGS step
 CPU 0.00 s  wall 0.00 s
 CPU 0.88 s  wall 0.89 s

 Total DFTman time = 0.88 CPUs 0.89 Wall
   GDM::WARNING energy changes are now smaller than effective accuracy.
   GDM::        calculation will continue, but THRESH should be increased
   GDM::        or SCF_CONVERGENCE decreased.
   GDM::        effective_thresh =   5.309530107244775E-009
   58    -558.1726773855      2.00E-06 Normal BFGS step
 CPU 0.00 s  wall 0.00 s
 CPU 0.87 s  wall 0.87 s

 Total DFTman time = 0.87 CPUs 0.87 Wall
   59    -558.1726773857      9.95E-07 Normal BFGS step
 CPU 0.00 s  wall 0.00 s
 CPU 0.84 s  wall 0.84 s

 Total DFTman time = 0.84 CPUs 0.84 Wall
   GDM::WARNING energy changes are now smaller than effective accuracy.
   GDM::        calculation will continue, but THRESH should be increased
   GDM::        or SCF_CONVERGENCE decreased.
   GDM::        effective_thresh =   5.309530107244775E-009
   60    -558.1726773854      4.91E-07 Normal BFGS step
 CPU 0.00 s  wall 0.00 s
 CPU 0.81 s  wall 0.81 s

 Total DFTman time = 0.81 CPUs 0.81 Wall
   61    -558.1726773855      2.37E-07 Normal BFGS step
 CPU 0.00 s  wall 0.00 s
 CPU 0.76 s  wall 0.76 s

 Total DFTman time = 0.76 CPUs 0.76 Wall
   GDM::WARNING energy changes are now smaller than effective accuracy.
   GDM::        calculation will continue, but THRESH should be increased
   GDM::        or SCF_CONVERGENCE decreased.
   GDM::        effective_thresh =   5.309530107244775E-009
   62    -558.1726773854      1.79E-07 Normal BFGS step
 CPU 0.00 s  wall 0.00 s
 CPU 0.70 s  wall 0.70 s

 Total DFTman time = 0.70 CPUs 0.70 Wall
   63    -558.1726773855      1.30E-07 Normal BFGS step
 CPU 0.00 s  wall 0.00 s
 CPU 0.67 s  wall 0.67 s

 Total DFTman time = 0.67 CPUs 0.67 Wall
   64    -558.1726773856      1.22E-07 Normal BFGS step
 CPU 0.00 s  wall 0.00 s
 CPU 0.69 s  wall 0.69 s

 Total DFTman time = 0.69 CPUs 0.69 Wall
   GDM::WARNING energy changes are now smaller than effective accuracy.
   GDM::        calculation will continue, but THRESH should be increased
   GDM::        or SCF_CONVERGENCE decreased.
   GDM::        effective_thresh =   5.309530107244775E-009
   65    -558.1726773856      7.93E-08 Normal BFGS step
 CPU 0.00 s  wall 0.00 s
 CPU 0.68 s  wall 0.69 s

 Total DFTman time = 0.68 CPUs 0.69 Wall
   GDM::WARNING energy changes are now smaller than effective accuracy.
   GDM::        calculation will continue, but THRESH should be increased
   GDM::        or SCF_CONVERGENCE decreased.
   GDM::        effective_thresh =   5.309530107244775E-009
   66    -558.1726773856      5.98E-08 Normal BFGS step
 CPU 0.00 s  wall 0.00 s
 CPU 0.63 s  wall 0.64 s

 Total DFTman time = 0.63 CPUs 0.64 Wall
   67    -558.1726773857      3.65E-08 Normal BFGS step
 CPU 0.00 s  wall 0.00 s
 CPU 0.60 s  wall 0.60 s

 Total DFTman time = 0.60 CPUs 0.60 Wall
   68    -558.1726773858      1.85E-08 Normal BFGS step
 CPU 0.00 s  wall 0.00 s
 CPU 0.54 s  wall 0.54 s

 Total DFTman time = 0.54 CPUs 0.54 Wall
   GDM::WARNING energy changes are now smaller than effective accuracy.
   GDM::        calculation will continue, but THRESH should be increased
   GDM::        or SCF_CONVERGENCE decreased.
   GDM::        effective_thresh =   5.309530107244775E-009
   69    -558.1726773857      7.82E-09 Convergence criterion met
 ---------------------------------------
 <S^2> = 0.7532
 SCF time:  CPU 271.67 s  wall 328.57 s
 SCF   energy in the final basis set = -558.1726773857
 Total energy in the final basis set = -558.1726773857
 Analysis of SCF Wavefunction
 
 --------------------------------------------------------------
 
                    Orbital Energies (a.u.)
 --------------------------------------------------------------
 
 Alpha MOs
 -- Occupied --
-66.279 -19.358 -19.329 -10.443 -10.361 -10.307  -5.395  -3.739
 -3.739  -3.738  -1.237  -1.139  -0.817  -0.779  -0.651  -0.611
 -0.583  -0.569  -0.554  -0.547  -0.533  -0.513  -0.428  -0.427
 -0.426  -0.419  -0.379  -0.292
 -- Virtual --
 -0.048   0.081   0.125   0.149   0.179   0.188   0.219   0.225
  0.234   0.242   0.246   0.312   0.320   0.326   0.352   0.378
  0.460   0.542   0.609   0.616   0.631   0.635   0.654   0.662
  0.743   0.749   0.767   0.778   0.799   0.877   0.887   0.902
  0.903   0.910   0.941   0.967   0.984   1.000   1.024   1.057
  1.069   1.125   1.149   1.158   1.240   1.254   1.278   1.418
  1.428   1.431   1.528   1.539   1.574   1.738   1.758   1.798
  1.812   1.843   1.885   2.009   2.018   2.026   2.079   2.091
  2.101   2.114   2.127   2.144   2.152   2.192   2.203   2.274
  2.299   2.320   2.334   2.428   2.484   2.591   2.605   2.618
  2.654   2.663   2.705   2.863   2.879   2.883   2.889   2.896
  2.920   2.928   3.082   3.167   3.202   3.448   3.480   3.480
  3.694   3.938   4.164   4.458   4.479
 
 Beta MOs
 -- Occupied --
-66.279 -19.357 -19.309 -10.443 -10.362 -10.307  -5.395  -3.739
 -3.739  -3.738  -1.237  -1.082  -0.816  -0.760  -0.651  -0.611
 -0.570  -0.548  -0.547  -0.536  -0.515  -0.507  -0.428  -0.426
 -0.419  -0.356  -0.292
 -- Virtual --
 -0.072  -0.040   0.081   0.125   0.149   0.180   0.188   0.219
  0.233   0.236   0.243   0.255   0.312   0.320   0.326   0.352
  0.379   0.460   0.548   0.609   0.621   0.632   0.636   0.654
  0.664   0.745   0.749   0.767   0.780   0.799   0.879   0.902
  0.903   0.908   0.919   0.944   0.976   0.987   1.012   1.033
  1.067   1.076   1.142   1.158   1.169   1.240   1.254   1.278
  1.429   1.432   1.437   1.529   1.552   1.574   1.738   1.759
  1.816   1.859   1.874   1.885   2.018   2.026   2.052   2.079
  2.099   2.108   2.119   2.139   2.150   2.152   2.192   2.203
  2.274   2.299   2.320   2.334   2.428   2.484   2.605   2.608
  2.618   2.662   2.674   2.705   2.865   2.883   2.884   2.897
  2.901   2.926   2.930   3.082   3.168   3.208   3.454   3.480
  3.481   3.728   3.938   4.164   4.458   4.479
 --------------------------------------------------------------
 
          Ground-State Mulliken Net Atomic Charges

     Atom                 Charge (a.u.)    Spin (a.u.)
  --------------------------------------------------------
      1 C                     0.370189      -0.002400
      2 O                    -0.308330       0.917626
      3 O                    -0.248722       0.004280
      4 C                    -0.493039       0.001176
      5 Si                    0.509458       0.000059
      6 H                    -0.099570      -0.000057
      7 H                    -0.099538       0.000122
      8 H                    -0.102548      -0.000002
      9 H                     0.155481      -0.000053
     10 C                    -0.128712      -0.053814
     11 H                     0.170862       0.090479
     12 H                     0.128581       0.006365
     13 H                     0.145890       0.036218
  --------------------------------------------------------
  Sum of atomic charges =     0.000000
  Sum of spin   charges =     1.000000

 -----------------------------------------------------------------
                    Cartesian Multipole Moments
 -----------------------------------------------------------------
    Charge (ESU x 10^10)
                 0.0000
    Dipole Moment (Debye)
         X      -2.6455      Y      -0.4001      Z      -0.0552
       Tot       2.6762
    Quadrupole Moments (Debye-Ang)
        XX     -30.4416     XY       3.5342     YY     -45.8641
        XZ      -0.0146     YZ       0.2113     ZZ     -45.5496
    Octopole Moments (Debye-Ang^2)
       XXX     -91.9161    XXY      -8.1777    XYY      -8.2775
       YYY       1.1210    XXZ       0.8133    XYZ      -1.3335
       YYZ       0.1358    XZZ     -11.1562    YZZ      -2.7027
       ZZZ      -0.3107
    Hexadecapole Moments (Debye-Ang^3)
      XXXX   -1492.3714   XXXY     -10.3999   XXYY    -345.9739
      XYYY     -10.7524   YYYY    -195.9417   XXXZ      -4.5425
      XXYZ       5.0652   XYYZ      -1.1826   YYYZ       0.1866
      XXZZ    -326.6314   XYZZ       0.0283   YYZZ     -45.5640
      XZZZ       0.7816   YZZZ       0.4476   ZZZZ     -74.4458
 -----------------------------------------------------------------
 Calculating MO derivatives via CPSCF
 CPU 0.00 s  wall 0.00 s
 CPU 32.45 s  wall 32.51 s

 Total DFTman time = 32.45 CPUs 32.51 Wall
 CPU 0.00 s  wall 0.00 s
 CPU 38.75 s  wall 38.83 s

 Total DFTman time = 38.75 CPUs 38.83 Wall
 164 in setfozp
 CPU 0.00 s  wall 0.00 s
 CPU 33.49 s  wall 33.56 s

 Total DFTman time = 33.49 CPUs 33.56 Wall
   1         3          39      0.173386    0.041351
 164 in setfozp
 CPU 0.00 s  wall 0.00 s
 CPU 34.25 s  wall 34.33 s

 Total DFTman time = 34.25 CPUs 34.33 Wall
   2         3          39      0.036866    0.007225
 164 in setfozp
 CPU 0.00 s  wall 0.00 s
 CPU 34.39 s  wall 34.46 s

 Total DFTman time = 34.39 CPUs 34.46 Wall
   3         3          39      0.015480    0.005342
 164 in setfozp
 CPU 0.00 s  wall 0.00 s
 CPU 35.08 s  wall 35.16 s

 Total DFTman time = 35.08 CPUs 35.16 Wall
   4         3          39      0.041790    0.018030
 164 in setfozp
 CPU 0.00 s  wall 0.00 s
 CPU 35.08 s  wall 35.16 s

 Total DFTman time = 35.08 CPUs 35.16 Wall
   5         4          38      0.015370    0.006410
 164 in setfozp
 CPU 0.00 s  wall 0.00 s
 CPU 33.91 s  wall 33.99 s

 Total DFTman time = 33.91 CPUs 33.99 Wall
   6        18          24      0.001823    0.000796
 164 in setfozp
 CPU 0.00 s  wall 0.00 s
 CPU 21.57 s  wall 21.61 s

 Total DFTman time = 21.57 CPUs 21.61 Wall
   7        33           9      0.000181    0.000091
 164 in setfozp
 CPU 0.00 s  wall 0.00 s
 CPU 8.54 s  wall 8.56 s

 Total DFTman time = 8.54 CPUs 8.56 Wall
   8        37           5      0.000022    0.000012
 164 in setfozp
 CPU 0.00 s  wall 0.00 s
 CPU 5.14 s  wall 5.15 s

 Total DFTman time = 5.14 CPUs 5.15 Wall
   9        41           1      0.000002    0.000002
 164 in setfozp
 CPU 0.00 s  wall 0.00 s
 CPU 1.60 s  wall 1.60 s

 Total DFTman time = 1.60 CPUs 1.60 Wall
  10        42           0      0.000000    0.000000    Roots Converged
 CPU 0.00 s  wall 0.00 s
 CPU 36.30 s  wall 36.37 s

 Total DFTman time = 36.30 CPUs 36.37 Wall
 Calculating analytic Hessian of the SCF energy
 Polarizability Matrix (a.u.)
            1           2           3
    1 -76.7239823 -11.0918311  -4.7470378
    2 -11.0918311 -63.8713282  -4.8759993
    3  -4.7470378  -4.8759993 -66.5445271
 CPU 0.00 s  wall 0.00 s
 CPU 42.55 s  wall 42.64 s

 Total DFTman time = 42.55 CPUs 42.64 Wall
atom: 0 element: 6
atom: 1 element: 8
atom: 2 element: 8
atom: 3 element: 6
atom: 4 element: 14
atom: 5 element: 1
atom: 6 element: 1
atom: 7 element: 1
atom: 8 element: 1
atom: 9 element: 6
atom: 10 element: 1
atom: 11 element: 1
atom: 12 element: 1
 
 Direct stationary perturbation theory relativistic correction:
 
 rels  =       0.423337930576
 relv  =      -1.611202155467
 rel2e =       0.000000000000
 E_rel =      -1.187864224892
 
 Hessian of the SCF Energy
            1           2           3           4           5           6
    1   0.1264313  -0.1429846   0.0030189   0.0121250  -0.0049798  -0.0231914
    2  -0.1429846   1.1239959  -0.0078990  -0.0040421   0.0005087   0.0052906
    3   0.0030189  -0.0078990   0.0936800  -0.0066272   0.0023271   0.0159577
    4   0.0121250  -0.0040421  -0.0066272   0.1513342   0.1846979   0.1110624
    5  -0.0049798   0.0005087   0.0023271   0.1846979   0.2004223  -0.0512808
    6  -0.0231914   0.0052906   0.0159577   0.1110624  -0.0512808  -0.2401077
    7  -0.0385109   0.1854230  -0.0011084  -0.0003544   0.0001521   0.0014548
    8   0.1876055  -0.9771057   0.0066300  -0.0013516   0.0014170   0.0035238
    9  -0.0009317   0.0058758  -0.0343356  -0.0009334   0.0003334   0.0022384
   10  -0.0731436   0.0083141  -0.0013153  -0.0018858   0.0008733   0.0039907
   11  -0.0285926  -0.1207734   0.0017209   0.0026030  -0.0010996  -0.0049107
   12  -0.0011351   0.0021336  -0.0404550  -0.0001164   0.0001142   0.0003713
   13  -0.0167478  -0.0321262   0.0004748   0.0042974  -0.0020345  -0.0080933
   14  -0.0161487   0.0033515  -0.0010661  -0.0011293   0.0004642   0.0020992
   15  -0.0001672  -0.0008804  -0.0141734   0.0030864  -0.0011181  -0.0074015
   16   0.0024424   0.0084188   0.0028753  -0.0016314   0.0006792   0.0034641
   17  -0.0005570  -0.0043256   0.0001971   0.0003236  -0.0001179  -0.0006227
   18  -0.0002200  -0.0003722   0.0013595   0.0000677  -0.0000314  -0.0000941
   19   0.0022430   0.0081408  -0.0030072  -0.0001039   0.0001245  -0.0002057
   20  -0.0004812  -0.0042994  -0.0000747   0.0001752  -0.0000635  -0.0002664
   21   0.0002677   0.0008404   0.0012067  -0.0001652   0.0000640   0.0003168
   22  -0.0037144  -0.0009610  -0.0003517  -0.0008253   0.0003875   0.0015710
   23   0.0020282   0.0010441   0.0001181   0.0000079   0.0000252   0.0000022
   24  -0.0001398  -0.0000375   0.0011490  -0.0000480   0.0000165   0.0001134
   25  -0.0036320  -0.0308056   0.0007620   0.0000936   0.0001565   0.0002404
   26   0.0011138  -0.0220114   0.0000288  -0.0000050   0.0000471   0.0003091
   27   0.0008163  -0.0000610  -0.0089940  -0.0017431   0.0005805   0.0041423
   28  -0.0123130   0.0028570   0.0088386  -0.0790127  -0.1248896  -0.1562039
   29   0.0102449  -0.0006026  -0.0075008  -0.1786885  -0.1553224   0.1436692
   30   0.0523208  -0.0118131  -0.0370912  -0.2565143   0.1101455   0.5931506
   31  -0.0039891   0.0008569   0.0029245  -0.0166826  -0.0153827  -0.0503745
   32  -0.0045399   0.0004303   0.0032852   0.0069236   0.0001526  -0.0578227
   33  -0.0137282   0.0030109   0.0097920   0.0685419  -0.0277295  -0.1750329
   34   0.0021011  -0.0010677  -0.0014825  -0.0178744  -0.0273106   0.0523320
   35  -0.0118749   0.0019904   0.0087245   0.0461675  -0.0466309  -0.1332672
   36  -0.0112220   0.0031227   0.0080909   0.0669914  -0.0140878  -0.1335875
   37   0.0067079  -0.0020237  -0.0050019  -0.0494797  -0.0124737   0.0639535
   38   0.0091663  -0.0022029  -0.0064913  -0.0556823   0.0001972   0.0932764
   39  -0.0056883   0.0007891   0.0038133   0.0163978  -0.0193336  -0.0600668
            7           8           9          10          11          12
    1  -0.0385109   0.1876055  -0.0009317  -0.0731436  -0.0285926  -0.0011351
    2   0.1854230  -0.9771057   0.0058758   0.0083141  -0.1207734   0.0021336
    3  -0.0011084   0.0066300  -0.0343356  -0.0013153   0.0017209  -0.0404550
    4  -0.0003544  -0.0013516  -0.0009334  -0.0018858   0.0026030  -0.0001164
    5   0.0001521   0.0014170   0.0003334   0.0008733  -0.0010996   0.0001142
    6   0.0014548   0.0035238   0.0022384   0.0039907  -0.0049107   0.0003713
    7   0.0440939  -0.1396734   0.0005713  -0.0066548  -0.0415649   0.0009476
    8  -0.1396734   1.0717365  -0.0073450  -0.0626111  -0.0928485  -0.0000824
    9   0.0005713  -0.0073450   0.0098618   0.0008406   0.0007373   0.0076288
   10  -0.0066548  -0.0626111   0.0008406   0.3064197  -0.0840422   0.0076875
   11  -0.0415649  -0.0928485   0.0007373  -0.0840422   0.5790856  -0.0134523
   12   0.0009476  -0.0000824   0.0076288   0.0076875  -0.0134523   0.0630075
   13  -0.0040245   0.0259501  -0.0001458  -0.1337432   0.0398394  -0.0025598
   14  -0.0030700  -0.0139263   0.0004430   0.0370844  -0.0444698   0.0015837
   15  -0.0001545   0.0013869   0.0090247  -0.0028836   0.0012871  -0.0181119
   16   0.0022160  -0.0050299  -0.0023882  -0.0081388   0.0069072   0.0056738
   17   0.0000332   0.0039421  -0.0002476   0.0046735   0.0002717  -0.0027634
   18   0.0001424   0.0006512  -0.0009739   0.0005380  -0.0010243   0.0031165
   19   0.0020652  -0.0045720   0.0023589  -0.0076793   0.0067714  -0.0064184
   20  -0.0000454   0.0038756   0.0001790   0.0044305   0.0002989   0.0030665
   21  -0.0000178  -0.0009865  -0.0008860  -0.0010007   0.0013561   0.0027018
   22  -0.0007710  -0.0013862   0.0000635  -0.0040453  -0.0091830   0.0001623
   23  -0.0001105   0.0009806  -0.0000579   0.0003049   0.0024952  -0.0000536
   24  -0.0000092  -0.0000406  -0.0001612  -0.0000660  -0.0001606   0.0011247
   25   0.0013467  -0.0007322  -0.0001552  -0.0726445   0.1087873  -0.0043238
   26  -0.0009664   0.0028319   0.0003573   0.0916745  -0.3236710   0.0094985
   27  -0.0004761  -0.0003959   0.0097240  -0.0040621   0.0098502  -0.0192394
   28   0.0007258   0.0018531   0.0012046   0.0021371  -0.0026567   0.0000769
   29  -0.0007661  -0.0026775  -0.0010115  -0.0019259   0.0020123  -0.0000701
   30  -0.0032180  -0.0079157  -0.0051317  -0.0088942   0.0110560  -0.0002757
   31   0.0002537   0.0006240   0.0003990   0.0006820  -0.0008810   0.0000178
   32   0.0003360   0.0010471   0.0004478   0.0008570  -0.0008951   0.0000318
   33   0.0008437   0.0021128   0.0013338   0.0023310  -0.0028827   0.0000210
   34  -0.0000248   0.0000352  -0.0002422  -0.0002639   0.0005291  -0.0000200
   35   0.0007917   0.0021212   0.0011628   0.0019994  -0.0023826  -0.0000022
   36   0.0006162   0.0012927   0.0011212   0.0017794  -0.0024374   0.0000564
   37  -0.0003610  -0.0007115  -0.0006415  -0.0010398   0.0014830   0.0000076
   38  -0.0005393  -0.0013940  -0.0008743  -0.0016324   0.0019762  -0.0000043
   39   0.0004079   0.0011687   0.0005555   0.0010548  -0.0011397   0.0000540
           13          14          15          16          17          18
    1  -0.0167478  -0.0161487  -0.0001672   0.0024424  -0.0005570  -0.0002200
    2  -0.0321262   0.0033515  -0.0008804   0.0084188  -0.0043256  -0.0003722
    3   0.0004748  -0.0010661  -0.0141734   0.0028753   0.0001971   0.0013595
    4   0.0042974  -0.0011293   0.0030864  -0.0016314   0.0003236   0.0000677
    5  -0.0020345   0.0004642  -0.0011181   0.0006792  -0.0001179  -0.0000314
    6  -0.0080933   0.0020992  -0.0074015   0.0034641  -0.0006227  -0.0000941
    7  -0.0040245  -0.0030700  -0.0001545   0.0022160   0.0000332   0.0001424
    8   0.0259501  -0.0139263   0.0013869  -0.0050299   0.0039421   0.0006512
    9  -0.0001458   0.0004430   0.0090247  -0.0023882  -0.0002476  -0.0009739
   10  -0.1337432   0.0370844  -0.0028836  -0.0081388   0.0046735   0.0005380
   11   0.0398394  -0.0444698   0.0012871   0.0069072   0.0002717  -0.0010243
   12  -0.0025598   0.0015837  -0.0181119   0.0056738  -0.0027634   0.0031165
   13   0.2876916   0.0116272  -0.0018702  -0.0317995   0.0173097   0.0272424
   14   0.0116272   0.3323640   0.0021024   0.0168713  -0.0712510  -0.0657529
   15  -0.0018702   0.0021024   0.2979006   0.0299555  -0.0659828  -0.1243784
   16  -0.0317995   0.0168713   0.0299555   0.0298051  -0.0225837  -0.0300108
   17   0.0173097  -0.0712510  -0.0659828  -0.0225837   0.0701574   0.0730228
   18   0.0272424  -0.0657529  -0.1243784  -0.0300108   0.0730228   0.1283056
   19  -0.0287630   0.0122978  -0.0251432   0.0040510  -0.0009421   0.0020151
   20   0.0129871  -0.0653150   0.0621593  -0.0007624   0.0059451  -0.0060554
   21  -0.0227635   0.0620044  -0.1254753  -0.0015451   0.0056817  -0.0087578
   22  -0.0738323  -0.0726133   0.0000695   0.0037138   0.0017216  -0.0000599
   23  -0.0733719  -0.1395168   0.0001374  -0.0043240  -0.0048294  -0.0006574
   24   0.0000927   0.0000826  -0.0273497  -0.0056542  -0.0093173   0.0019795
   25  -0.0000817   0.0143236  -0.0004833  -0.0018608   0.0002453   0.0003283
   26  -0.0015688  -0.0013989  -0.0000107   0.0003344   0.0001200   0.0001948
   27   0.0000361   0.0004672   0.0029843   0.0008977  -0.0005548  -0.0006518
   28  -0.0044375   0.0011503  -0.0039820   0.0018958  -0.0003470  -0.0000664
   29   0.0036371  -0.0008439   0.0033834  -0.0015906   0.0002526   0.0000525
   30   0.0182255  -0.0047285   0.0167605  -0.0078664   0.0014173   0.0002460
   31  -0.0014691   0.0003896  -0.0013163   0.0006288  -0.0001171  -0.0000239
   32  -0.0016360   0.0004080  -0.0014876   0.0007033  -0.0001223  -0.0000229
   33  -0.0047813   0.0012380  -0.0043749   0.0020716  -0.0003740  -0.0000771
   34   0.0006749  -0.0001917   0.0006840  -0.0003082   0.0000579   0.0000092
   35  -0.0039663   0.0010035  -0.0038797   0.0017882  -0.0003058  -0.0000627
   36  -0.0038055   0.0010093  -0.0036478   0.0016809  -0.0003048  -0.0000502
   37   0.0022347  -0.0005911   0.0022048  -0.0010142   0.0001821   0.0000379
   38   0.0033531  -0.0008695   0.0029029  -0.0014117   0.0002632   0.0000579
   39  -0.0020522   0.0005176  -0.0017571   0.0008458  -0.0001515  -0.0000238
           19          20          21          22          23          24
    1   0.0022430  -0.0004812   0.0002677  -0.0037144   0.0020282  -0.0001398
    2   0.0081408  -0.0042994   0.0008404  -0.0009610   0.0010441  -0.0000375
    3  -0.0030072  -0.0000747   0.0012067  -0.0003517   0.0001181   0.0011490
    4  -0.0001039   0.0001752  -0.0001652  -0.0008253   0.0000079  -0.0000480
    5   0.0001245  -0.0000635   0.0000640   0.0003875   0.0000252   0.0000165
    6  -0.0002057  -0.0002664   0.0003168   0.0015710   0.0000022   0.0001134
    7   0.0020652  -0.0000454  -0.0000178  -0.0007710  -0.0001105  -0.0000092
    8  -0.0045720   0.0038756  -0.0009865  -0.0013862   0.0009806  -0.0000406
    9   0.0023589   0.0001790  -0.0008860   0.0000635  -0.0000579  -0.0001612
   10  -0.0076793   0.0044305  -0.0010007  -0.0040453   0.0003049  -0.0000660
   11   0.0067714   0.0002989   0.0013561  -0.0091830   0.0024952  -0.0001606
   12  -0.0064184   0.0030665   0.0027018   0.0001623  -0.0000536   0.0011247
   13  -0.0287630   0.0129871  -0.0227635  -0.0738323  -0.0733719   0.0000927
   14   0.0122978  -0.0653150   0.0620044  -0.0726133  -0.1395168   0.0000826
   15  -0.0251432   0.0621593  -0.1254753   0.0000695   0.0001374  -0.0273497
   16   0.0040510  -0.0007624  -0.0015451   0.0037138  -0.0043240  -0.0056542
   17  -0.0009421   0.0059451   0.0056817   0.0017216  -0.0048294  -0.0093173
   18   0.0020151  -0.0060554  -0.0087578  -0.0000599  -0.0006574   0.0019795
   19   0.0265982  -0.0178281   0.0254141   0.0034928  -0.0041747   0.0058487
   20  -0.0178281   0.0638966  -0.0693416   0.0013886  -0.0045446   0.0095363
   21   0.0254141  -0.0693416   0.1298989   0.0000721   0.0006457   0.0019603
   22   0.0034928   0.0013886   0.0000721   0.0743111   0.0807396  -0.0001134
   23  -0.0041747  -0.0045446   0.0006457   0.0807396   0.1439867  -0.0000547
   24   0.0058487   0.0095363   0.0019603  -0.0001134  -0.0000547   0.0217772
   25  -0.0019027   0.0002421  -0.0003699   0.0011000  -0.0011089   0.0000557
   26   0.0002286   0.0001659  -0.0002205   0.0001728   0.0003767  -0.0000140
   27  -0.0010762   0.0005508  -0.0006770   0.0000566  -0.0000766  -0.0004936
   28  -0.0001080  -0.0001491   0.0001599   0.0008552   0.0000006   0.0000503
   29   0.0001331   0.0000791  -0.0001108  -0.0007097  -0.0000391  -0.0000350
   30   0.0005302   0.0005921  -0.0006760  -0.0035292  -0.0000022  -0.0002254
   31  -0.0000372  -0.0000507   0.0000517   0.0002836  -0.0000031   0.0000154
   32  -0.0000468  -0.0000479   0.0000564   0.0003164   0.0000070   0.0000182
   33  -0.0001470  -0.0001526   0.0001640   0.0009251   0.0000011   0.0000489
   34   0.0000333   0.0000244  -0.0000276  -0.0001329   0.0000069  -0.0000098
   35  -0.0001931  -0.0001070   0.0001269   0.0007720   0.0000123   0.0000384
   36  -0.0001462  -0.0001257   0.0001440   0.0007380  -0.0000082   0.0000493
   37   0.0001105   0.0000690  -0.0000755  -0.0004353   0.0000048  -0.0000225
   38   0.0000606   0.0001161  -0.0001162  -0.0006454   0.0000020  -0.0000323
   39  -0.0000230  -0.0000674   0.0000795   0.0003960   0.0000060   0.0000277
           25          26          27          28          29          30
    1  -0.0036320   0.0011138   0.0008163  -0.0123130   0.0102449   0.0523208
    2  -0.0308056  -0.0220114  -0.0000610   0.0028570  -0.0006026  -0.0118131
    3   0.0007620   0.0000288  -0.0089940   0.0088386  -0.0075008  -0.0370912
    4   0.0000936  -0.0000050  -0.0017431  -0.0790127  -0.1786885  -0.2565143
    5   0.0001565   0.0000471   0.0005805  -0.1248896  -0.1553224   0.1101455
    6   0.0002404   0.0003091   0.0041423  -0.1562039   0.1436692   0.5931506
    7   0.0013467  -0.0009664  -0.0004761   0.0007258  -0.0007661  -0.0032180
    8  -0.0007322   0.0028319  -0.0003959   0.0018531  -0.0026775  -0.0079157
    9  -0.0001552   0.0003573   0.0097240   0.0012046  -0.0010115  -0.0051317
   10  -0.0726445   0.0916745  -0.0040621   0.0021371  -0.0019259  -0.0088942
   11   0.1087873  -0.3236710   0.0098502  -0.0026567   0.0020123   0.0110560
   12  -0.0043238   0.0094985  -0.0192394   0.0000769  -0.0000701  -0.0002757
   13  -0.0000817  -0.0015688   0.0000361  -0.0044375   0.0036371   0.0182255
   14   0.0143236  -0.0013989   0.0004672   0.0011503  -0.0008439  -0.0047285
   15  -0.0004833  -0.0000107   0.0029843  -0.0039820   0.0033834   0.0167605
   16  -0.0018608   0.0003344   0.0008977   0.0018958  -0.0015906  -0.0078664
   17   0.0002453   0.0001200  -0.0005548  -0.0003470   0.0002526   0.0014173
   18   0.0003283   0.0001948  -0.0006518  -0.0000664   0.0000525   0.0002460
   19  -0.0019027   0.0002286  -0.0010762  -0.0001080   0.0001331   0.0005302
   20   0.0002421   0.0001659   0.0005508  -0.0001491   0.0000791   0.0005921
   21  -0.0003699  -0.0002205  -0.0006770   0.0001599  -0.0001108  -0.0006760
   22   0.0011000   0.0001728   0.0000566   0.0008552  -0.0007097  -0.0035292
   23  -0.0011089   0.0003767  -0.0000766   0.0000006  -0.0000391  -0.0000022
   24   0.0000557  -0.0000140  -0.0004936   0.0000503  -0.0000350  -0.0002254
   25   0.0774300  -0.0911051   0.0041876   0.0001436  -0.0001942  -0.0006002
   26  -0.0911051   0.3435504  -0.0098393   0.0001605  -0.0002075  -0.0007535
   27   0.0041876  -0.0098393   0.0172486   0.0023032  -0.0019723  -0.0097502
   28   0.0001436   0.0001605   0.0023032   0.3391543   0.0617643   0.3607427
   29  -0.0001942  -0.0002075  -0.0019723   0.0617643   0.4671239  -0.3196554
   30  -0.0006002  -0.0007535  -0.0097502   0.3607427  -0.3196554  -0.9539372
   31   0.0000598   0.0000652   0.0007705  -0.2278871   0.1339956   0.1418608
   32   0.0000740   0.0000827   0.0008619   0.0594118  -0.0752734   0.1266902
   33   0.0001629   0.0002045   0.0025910  -0.0712753   0.0751168   0.3561186
   34   0.0000028  -0.0000156  -0.0003955  -0.0347064   0.0121967  -0.0941244
   35   0.0001896   0.0002207   0.0023163  -0.0590458  -0.0699816   0.4584589
   36   0.0001229   0.0001600   0.0021174  -0.1090153   0.1747044   0.1237626
   37  -0.0000548  -0.0000888  -0.0013148   0.0135529  -0.0380968  -0.1989334
   38  -0.0000725  -0.0001066  -0.0017268   0.0598906  -0.1645198  -0.3634917
   39   0.0000727   0.0000852   0.0009983  -0.0328334  -0.0665703  -0.0829510
           31          32          33          34          35          36
    1  -0.0039891  -0.0045399  -0.0137282   0.0021011  -0.0118749  -0.0112220
    2   0.0008569   0.0004303   0.0030109  -0.0010677   0.0019904   0.0031227
    3   0.0029245   0.0032852   0.0097920  -0.0014825   0.0087245   0.0080909
    4  -0.0166826   0.0069236   0.0685419  -0.0178744   0.0461675   0.0669914
    5  -0.0153827   0.0001526  -0.0277295  -0.0273106  -0.0466309  -0.0140878
    6  -0.0503745  -0.0578227  -0.1750329   0.0523320  -0.1332672  -0.1335875
    7   0.0002537   0.0003360   0.0008437  -0.0000248   0.0007917   0.0006162
    8   0.0006240   0.0010471   0.0021128   0.0000352   0.0021212   0.0012927
    9   0.0003990   0.0004478   0.0013338  -0.0002422   0.0011628   0.0011212
   10   0.0006820   0.0008570   0.0023310  -0.0002639   0.0019994   0.0017794
   11  -0.0008810  -0.0008951  -0.0028827   0.0005291  -0.0023826  -0.0024374
   12   0.0000178   0.0000318   0.0000210  -0.0000200  -0.0000022   0.0000564
   13  -0.0014691  -0.0016360  -0.0047813   0.0006749  -0.0039663  -0.0038055
   14   0.0003896   0.0004080   0.0012380  -0.0001917   0.0010035   0.0010093
   15  -0.0013163  -0.0014876  -0.0043749   0.0006840  -0.0038797  -0.0036478
   16   0.0006288   0.0007033   0.0020716  -0.0003082   0.0017882   0.0016809
   17  -0.0001171  -0.0001223  -0.0003740   0.0000579  -0.0003058  -0.0003048
   18  -0.0000239  -0.0000229  -0.0000771   0.0000092  -0.0000627  -0.0000502
   19  -0.0000372  -0.0000468  -0.0001470   0.0000333  -0.0001931  -0.0001462
   20  -0.0000507  -0.0000479  -0.0001526   0.0000244  -0.0001070  -0.0001257
   21   0.0000517   0.0000564   0.0001640  -0.0000276   0.0001269   0.0001440
   22   0.0002836   0.0003164   0.0009251  -0.0001329   0.0007720   0.0007380
   23  -0.0000031   0.0000070   0.0000011   0.0000069   0.0000123  -0.0000082
   24   0.0000154   0.0000182   0.0000489  -0.0000098   0.0000384   0.0000493
   25   0.0000598   0.0000740   0.0001629   0.0000028   0.0001896   0.0001229
   26   0.0000652   0.0000827   0.0002045  -0.0000156   0.0002207   0.0001600
   27   0.0007705   0.0008619   0.0025910  -0.0003955   0.0023163   0.0021174
   28  -0.2278871   0.0594118  -0.0712753  -0.0347064  -0.0590458  -0.1090153
   29   0.1339956  -0.0752734   0.0751168   0.0121967  -0.0699816   0.1747044
   30   0.1418608   0.1266902   0.3561186  -0.0941244   0.4584589   0.1237626
   31   0.2286543  -0.1163125  -0.0556002   0.0025630  -0.0244694  -0.0245270
   32  -0.1163125   0.0950521  -0.0254821   0.0221742  -0.0382364  -0.0322417
   33  -0.0556002  -0.0254821  -0.0619519  -0.0043694  -0.0802240  -0.0841599
   34   0.0025630   0.0221742  -0.0043694   0.0549067   0.0035890   0.0395799
   35  -0.0244694  -0.0382364  -0.0802240   0.0035890   0.0808990  -0.2042099
   36  -0.0245270  -0.0322417  -0.0841599   0.0395799  -0.2042099   0.1412084
   37   0.0169399   0.0317389   0.0750252  -0.0069712   0.0442521   0.0372074
   38   0.0212852   0.0173952   0.0551608  -0.0100277   0.0713970   0.0731264
   39  -0.0141978  -0.0143346  -0.0444726   0.0080664  -0.0491820  -0.0551050
           37          38          39
    1   0.0067079   0.0091663  -0.0056883
    2  -0.0020237  -0.0022029   0.0007891
    3  -0.0050019  -0.0064913   0.0038133
    4  -0.0494797  -0.0556823   0.0163978
    5  -0.0124737   0.0001972  -0.0193336
    6   0.0639535   0.0932764  -0.0600668
    7  -0.0003610  -0.0005393   0.0004079
    8  -0.0007115  -0.0013940   0.0011687
    9  -0.0006415  -0.0008743   0.0005555
   10  -0.0010398  -0.0016324   0.0010548
   11   0.0014830   0.0019762  -0.0011397
   12   0.0000076  -0.0000043   0.0000540
   13   0.0022347   0.0033531  -0.0020522
   14  -0.0005911  -0.0008695   0.0005176
   15   0.0022048   0.0029029  -0.0017571
   16  -0.0010142  -0.0014117   0.0008458
   17   0.0001821   0.0002632  -0.0001515
   18   0.0000379   0.0000579  -0.0000238
   19   0.0001105   0.0000606  -0.0000230
   20   0.0000690   0.0001161  -0.0000674
   21  -0.0000755  -0.0001162   0.0000795
   22  -0.0004353  -0.0006454   0.0003960
   23   0.0000048   0.0000020   0.0000060
   24  -0.0000225  -0.0000323   0.0000277
   25  -0.0000548  -0.0000725   0.0000727
   26  -0.0000888  -0.0001066   0.0000852
   27  -0.0013148  -0.0017268   0.0009983
   28   0.0135529   0.0598906  -0.0328334
   29  -0.0380968  -0.1645198  -0.0665703
   30  -0.1989334  -0.3634917  -0.0829510
   31   0.0169399   0.0212852  -0.0141978
   32   0.0317389   0.0173952  -0.0143346
   33   0.0750252   0.0551608  -0.0444726
   34  -0.0069712  -0.0100277   0.0080664
   35   0.0442521   0.0713970  -0.0491820
   36   0.0372074   0.0731264  -0.0551050
   37   0.0198100  -0.0237443   0.0275533
   38  -0.0237443   0.0777458   0.1482124
   39   0.0275533   0.1482124   0.2388478
 Gradient time:  CPU 742.38 s  wall 760.51 s
 **********************************************************************
 **                                                                  **
 **                       VIBRATIONAL ANALYSIS                       **
 **                       --------------------                       **
 **                                                                  **
 **        VIBRATIONAL FREQUENCIES (CM**-1) AND NORMAL MODES         **
 **     FORCE CONSTANTS (mDYN/ANGSTROM) AND REDUCED MASSES (AMU)     **
 **                  INFRARED INTENSITIES (KM/MOL)                   **
 **                                                                  **
 **********************************************************************
 

 Mode:                 1                      2                      3
 Frequency:     -3513.99                -125.33                 -78.01
 Force Cnst:     10.0353                 0.0112                 0.0299
 Red. Mass:       1.3794                 1.2082                 8.3483
 IR Active:          YES                    YES                    YES
 IR Intens:    11928.377                  0.015                  2.446
 Raman Active:       YES                    YES                    YES
               X      Y      Z        X      Y      Z        X      Y      Z
 C         -0.006  0.001  0.005    0.001 -0.001 -0.032   -0.187  0.091  0.014
 O          0.023 -0.009 -0.056   -0.002  0.002  0.030    0.463 -0.160 -0.079
 O          0.000  0.001  0.001    0.003 -0.001 -0.081   -0.236  0.082 -0.040
 C          0.001 -0.001 -0.000    0.001 -0.001 -0.041   -0.139  0.052  0.042
 Si        -0.001  0.000 -0.001   -0.000  0.000  0.044   -0.151 -0.004  0.005
 H          0.011 -0.002  0.001   -0.150 -0.485  0.335   -0.203 -0.025  0.004
 H         -0.001 -0.000  0.001    0.136  0.499  0.330   -0.132 -0.002  0.002
 H          0.004 -0.001 -0.000    0.009 -0.006 -0.489   -0.113 -0.028 -0.023
 H          0.001  0.000  0.013    0.001 -0.000 -0.024   -0.105  0.064  0.075
 C         -0.040  0.034  0.161   -0.001  0.000  0.021    0.343 -0.034  0.056
 H         -0.180 -0.183 -0.513   -0.003 -0.003  0.023    0.428  0.106  0.110
 H          0.082 -0.478 -0.394   -0.000 -0.010  0.012    0.316  0.040  0.121
 H          0.277  0.374 -0.178    0.002  0.012  0.014    0.185 -0.116  0.117
 TransDip  -0.752 -0.791 -3.323    0.004 -0.001 -0.001   -0.040  0.019  0.023

 Mode:                 4                      5                      6
 Frequency:       -64.31                  54.81                  66.69
 Force Cnst:      0.0077                 0.0110                 0.0079
 Red. Mass:       3.1538                 6.2087                 3.0059
 IR Active:          YES                    YES                    YES
 IR Intens:        6.336                  0.419                  0.271
 Raman Active:       YES                    YES                    YES
               X      Y      Z        X      Y      Z        X      Y      Z
 C         -0.019  0.013 -0.047   -0.054 -0.280  0.082    0.009  0.061  0.181
 O          0.045 -0.009  0.259    0.090  0.161  0.006   -0.021 -0.034 -0.008
 O         -0.029  0.013  0.140    0.244 -0.235  0.018   -0.052  0.051  0.044
 C         -0.012  0.006 -0.151   -0.188 -0.135  0.117    0.036  0.033  0.262
 Si        -0.017 -0.003 -0.011   -0.116  0.123 -0.055    0.029 -0.028 -0.122
 H          0.080 -0.043  0.045   -0.144  0.105 -0.051   -0.331 -0.221 -0.093
 H         -0.128  0.037  0.041    0.156  0.241 -0.045    0.348  0.146 -0.087
 H         -0.009 -0.008  0.007   -0.297  0.244 -0.212    0.070 -0.056 -0.495
 H         -0.002  0.005 -0.271   -0.342 -0.181  0.188    0.064  0.045  0.385
 C          0.042 -0.016 -0.210    0.095  0.154 -0.070   -0.022 -0.036 -0.141
 H          0.046 -0.039 -0.060    0.094  0.147 -0.044   -0.016 -0.037 -0.086
 H         -0.036 -0.353 -0.483    0.083  0.105 -0.109   -0.043 -0.126 -0.213
 H          0.117  0.384 -0.455    0.107  0.212 -0.106   -0.010  0.073 -0.206
 TransDip  -0.001  0.004 -0.081   -0.015 -0.014 -0.005    0.001  0.005 -0.016

 Mode:                 7                      8                      9
 Frequency:       119.70                 131.08                 134.42
 Force Cnst:      0.0156                 0.0152                 0.0463
 Red. Mass:       1.8439                 1.5009                 4.3515
 IR Active:          YES                    YES                    YES
 IR Intens:       12.365                  6.109                  0.937
 Raman Active:       YES                    YES                    YES
               X      Y      Z        X      Y      Z        X      Y      Z
 C         -0.008  0.003 -0.000   -0.001 -0.012  0.003   -0.009  0.080  0.000
 O         -0.081  0.142  0.039   -0.062  0.090 -0.059   -0.051  0.052 -0.028
 O         -0.059 -0.005 -0.010   -0.074 -0.023  0.008    0.306  0.128  0.009
 C         -0.004 -0.012  0.005    0.007 -0.033 -0.000   -0.043  0.167 -0.001
 Si        -0.002 -0.010 -0.006    0.022  0.014  0.008   -0.143 -0.141  0.001
 H         -0.006 -0.002 -0.012    0.062  0.026  0.011   -0.368 -0.246  0.006
 H          0.008 -0.013 -0.010    0.053  0.035  0.013   -0.376 -0.240 -0.004
 H         -0.010 -0.005 -0.005   -0.029  0.047  0.005    0.175 -0.352  0.010
 H          0.007 -0.008  0.011    0.015 -0.030 -0.006   -0.061  0.158  0.003
 C          0.149 -0.099 -0.013    0.089 -0.062  0.024    0.074 -0.075  0.012
 H         -0.041 -0.341 -0.488    0.085 -0.183  0.611    0.038 -0.185  0.248
 H          0.064  0.120  0.180    0.518 -0.290 -0.217    0.293 -0.156 -0.081
 H          0.625 -0.353  0.112   -0.267  0.223 -0.127   -0.037  0.030 -0.045
 TransDip   0.087 -0.059 -0.042    0.046 -0.025  0.059   -0.001 -0.027  0.014

 Mode:                10                     11                     12
 Frequency:       443.61                 527.67                 602.20
 Force Cnst:      0.8066                 1.8154                 0.3098
 Red. Mass:       6.9567                11.0663                 1.4497
 IR Active:          YES                    YES                    YES
 IR Intens:       32.372                 15.370                 47.189
 Raman Active:       YES                    YES                    YES
               X      Y      Z        X      Y      Z        X      Y      Z
 C          0.628 -0.006  0.003   -0.004  0.005  0.790   -0.055 -0.042 -0.007
 O          0.019  0.001 -0.003   -0.001  0.000 -0.002    0.001  0.001 -0.000
 O         -0.158 -0.142  0.000   -0.001 -0.003 -0.257   -0.022 -0.043  0.003
 C          0.020  0.087  0.012    0.008 -0.005 -0.442   -0.091  0.047  0.006
 Si        -0.171  0.044 -0.004    0.001  0.005  0.024    0.083  0.044 -0.004
 H         -0.449 -0.073 -0.005    0.054  0.092 -0.026   -0.289 -0.159  0.027
 H         -0.452 -0.064 -0.006   -0.140 -0.123 -0.029   -0.386 -0.124  0.004
 H          0.220 -0.219  0.003    0.064 -0.037  0.208    0.702 -0.375  0.027
 H         -0.035  0.066 -0.027   -0.027 -0.001  0.012   -0.256  0.000  0.023
 C         -0.002  0.023  0.005    0.001 -0.003 -0.057   -0.001  0.002  0.000
 H          0.000  0.029 -0.008    0.010  0.008 -0.027    0.000  0.003  0.000
 H         -0.006 -0.000 -0.015   -0.014 -0.022 -0.070   -0.001  0.002  0.000
 H         -0.000  0.040 -0.006   -0.002  0.025 -0.072   -0.001  0.002  0.001
 TransDip   0.084  0.161 -0.011    0.004  0.013  0.125    0.171  0.138 -0.011

 Mode:                13                     14                     15
 Frequency:       636.47                 715.82                 788.82
 Force Cnst:      0.2684                 0.3589                 1.2396
 Red. Mass:       1.1244                 1.1888                 3.3811
 IR Active:          YES                    YES                    YES
 IR Intens:       15.175                 58.315                 73.719
 Raman Active:       YES                    YES                    YES
               X      Y      Z        X      Y      Z        X      Y      Z
 C          0.003  0.002  0.019    0.006 -0.000 -0.043   -0.110 -0.006 -0.007
 O         -0.000  0.000 -0.001   -0.000 -0.000 -0.004   -0.003 -0.000  0.001
 O          0.001  0.003 -0.007   -0.003 -0.001  0.042    0.016  0.030  0.003
 C          0.005 -0.003  0.050    0.002  0.003 -0.109    0.317 -0.216  0.007
 Si        -0.003 -0.004 -0.055   -0.000 -0.002  0.007   -0.106  0.105 -0.004
 H          0.616 -0.169  0.247   -0.085  0.005 -0.013   -0.343 -0.149  0.079
 H         -0.596  0.210  0.233    0.102 -0.004 -0.011   -0.341 -0.147 -0.085
 H         -0.056  0.032  0.153   -0.011  0.006  0.025    0.415 -0.246  0.010
 H          0.007  0.003  0.210   -0.043  0.023  0.981    0.513 -0.161  0.056
 C          0.001 -0.000 -0.002    0.000 -0.001 -0.000    0.001 -0.004 -0.002
 H          0.003  0.003  0.002    0.003  0.003  0.001    0.004 -0.000  0.003
 H         -0.001  0.005  0.004   -0.001  0.007  0.006   -0.001  0.005  0.006
 H         -0.003 -0.006  0.002   -0.004 -0.008  0.005   -0.005 -0.009  0.002
 TransDip  -0.004 -0.018 -0.123   -0.002  0.004  0.245   -0.269  0.058  0.001

 Mode:                16                     17                     18
 Frequency:       906.13                 938.37                 951.75
 Force Cnst:      2.9395                 0.5703                 0.5580
 Red. Mass:       6.0764                 1.0994                 1.0454
 IR Active:          YES                    YES                    YES
 IR Intens:       97.619                228.672                 74.577
 Raman Active:       YES                    YES                    YES
               X      Y      Z        X      Y      Z        X      Y      Z
 C         -0.159 -0.214  0.002    0.015  0.011 -0.000   -0.002 -0.001  0.001
 O         -0.000  0.003  0.001   -0.001  0.000  0.000    0.000 -0.000 -0.000
 O         -0.056 -0.207  0.001    0.005  0.017 -0.000   -0.000 -0.002  0.001
 C          0.306  0.474  0.000   -0.029 -0.029  0.000    0.003  0.003  0.004
 Si        -0.061 -0.000 -0.002   -0.048 -0.007 -0.004    0.005  0.000 -0.037
 H          0.400 -0.115  0.197    0.428  0.253 -0.044   -0.315 -0.318  0.102
 H          0.386 -0.120 -0.171    0.463  0.308  0.076    0.235  0.279  0.098
 H          0.053 -0.061 -0.001    0.533 -0.374  0.086   -0.059  0.041  0.798
 H         -0.002  0.386 -0.029    0.007 -0.020 -0.002    0.003  0.002 -0.055
 C          0.002  0.004 -0.000    0.001 -0.001 -0.001   -0.000  0.000  0.000
 H          0.004  0.007  0.000    0.001  0.000  0.001   -0.001 -0.002 -0.001
 H         -0.005  0.006  0.003   -0.000  0.002  0.002    0.001 -0.000 -0.000
 H         -0.006  0.003 -0.000   -0.002 -0.002  0.000    0.001  0.000  0.000
 TransDip  -0.285 -0.137 -0.006   -0.479 -0.064 -0.031    0.048  0.001 -0.272

 Mode:                19                     20                     21
 Frequency:       967.48                1030.46                1157.09
 Force Cnst:      0.6006                 1.1590                 2.0925
 Red. Mass:       1.0890                 1.8526                 2.6526
 IR Active:          YES                    YES                    YES
 IR Intens:      101.588                  5.135                  8.096
 Raman Active:       YES                    YES                    YES
               X      Y      Z        X      Y      Z        X      Y      Z
 C         -0.025 -0.015 -0.000    0.001  0.000 -0.001   -0.001 -0.000  0.001
 O          0.000 -0.000 -0.000   -0.143 -0.062 -0.015   -0.119 -0.190  0.014
 O         -0.003 -0.022  0.001   -0.000  0.000 -0.002   -0.000  0.000  0.002
 C          0.049  0.029 -0.000   -0.001 -0.000  0.001   -0.000 -0.000 -0.001
 Si         0.011 -0.030  0.002    0.000  0.000  0.000   -0.000 -0.000 -0.000
 H         -0.289  0.493 -0.430   -0.004  0.000 -0.001    0.002 -0.002  0.002
 H         -0.287  0.493  0.391    0.000 -0.001 -0.001   -0.001  0.001  0.000
 H         -0.031  0.008 -0.005   -0.002  0.002  0.003    0.002 -0.001 -0.002
 H          0.048  0.030  0.001    0.001  0.000 -0.002    0.007  0.002  0.002
 C          0.000  0.000  0.000    0.202  0.017  0.050    0.116  0.257 -0.037
 H         -0.000 -0.000 -0.001    0.447  0.612 -0.249   -0.312 -0.495  0.138
 H         -0.000 -0.001 -0.001   -0.402 -0.119  0.019    0.523  0.359  0.035
 H          0.001  0.000  0.000   -0.184  0.272 -0.104    0.306  0.095  0.024
 TransDip   0.240 -0.216  0.010    0.011  0.041 -0.059   -0.003  0.088  0.022

 Mode:                22                     23                     24
 Frequency:      1193.31                1359.78                1415.50
 Force Cnst:      0.9753                 1.1515                 1.2578
 Red. Mass:       1.1625                 1.0570                 1.0655
 IR Active:          YES                    YES                    YES
 IR Intens:       56.472                 24.456                 19.700
 Raman Active:       YES                    YES                    YES
               X      Y      Z        X      Y      Z        X      Y      Z
 C         -0.007 -0.006  0.001   -0.001  0.000  0.000    0.000  0.001 -0.000
 O          0.001  0.001 -0.000   -0.013 -0.012 -0.028   -0.019 -0.014  0.025
 O          0.007 -0.041  0.001    0.000 -0.000 -0.000    0.000 -0.001 -0.000
 C         -0.104  0.019 -0.004    0.000 -0.000  0.000    0.000  0.000  0.000
 Si         0.010  0.007 -0.000   -0.000 -0.000  0.000   -0.000  0.000 -0.000
 H         -0.016 -0.018  0.009    0.001  0.000  0.001   -0.000  0.000 -0.000
 H         -0.019 -0.018 -0.007    0.000 -0.000 -0.000    0.001  0.000 -0.000
 H          0.040 -0.010 -0.000    0.001 -0.001  0.001   -0.000  0.000  0.000
 H          0.928  0.348  0.031    0.001  0.000  0.002   -0.001 -0.000 -0.002
 C         -0.000 -0.001  0.000   -0.052 -0.015  0.003   -0.059  0.003 -0.011
 H          0.001  0.001 -0.000    0.172  0.258  0.474    0.231  0.516 -0.234
 H         -0.001 -0.002 -0.001   -0.131 -0.017  0.033    0.699 -0.048 -0.163
 H         -0.001 -0.002  0.001    0.791  0.140 -0.104    0.073 -0.282  0.136
 TransDip   0.147  0.190  0.005    0.094  0.046  0.119    0.097  0.004 -0.104

 Mode:                25                     26                     27
 Frequency:      1524.19                2035.88                2208.57
 Force Cnst:      1.5178                28.1654                 2.9986
 Red. Mass:       1.1089                11.5335                 1.0434
 IR Active:          YES                    YES                    YES
 IR Intens:        6.410                342.373                135.829
 Raman Active:       YES                    YES                    YES
               X      Y      Z        X      Y      Z        X      Y      Z
 C          0.000  0.000  0.000   -0.119  0.742 -0.006   -0.001  0.013  0.000
 O          0.008 -0.002  0.002   -0.002 -0.002  0.001   -0.000  0.000 -0.000
 O          0.000 -0.000 -0.001    0.089 -0.528  0.003    0.001 -0.009 -0.000
 C         -0.000  0.000  0.000    0.038 -0.030  0.002   -0.001 -0.000  0.000
 Si         0.000 -0.000  0.000   -0.007 -0.002  0.001   -0.007  0.017 -0.029
 H         -0.000  0.001 -0.001    0.023  0.070  0.164   -0.005  0.018  0.001
 H         -0.001 -0.001  0.000    0.019  0.086 -0.196    0.198 -0.524  0.827
 H         -0.001  0.001  0.001   -0.008 -0.023  0.001    0.010  0.022 -0.009
 H          0.002  0.001  0.002   -0.242 -0.094 -0.003   -0.008 -0.001 -0.007
 C         -0.033 -0.089  0.011    0.001 -0.003 -0.001    0.000 -0.000 -0.000
 H          0.005  0.042 -0.206   -0.003 -0.008  0.006    0.000  0.000  0.001
 H          0.304  0.484  0.403   -0.010  0.004 -0.001   -0.000  0.001 -0.000
 H         -0.040  0.570 -0.362   -0.006 -0.005  0.003   -0.000 -0.001  0.000
 TransDip  -0.080 -0.006  0.011    0.340  0.485 -0.000   -0.140  0.177 -0.297

 Mode:                28                     29                     30
 Frequency:      2250.10                2311.01                2882.69
 Force Cnst:      3.1065                 3.2775                 5.1193
 Red. Mass:       1.0414                 1.0416                 1.0456
 IR Active:          YES                    YES                    YES
 IR Intens:      134.753                135.892                  1.053
 Raman Active:       YES                    YES                    YES
               X      Y      Z        X      Y      Z        X      Y      Z
 C          0.001 -0.011  0.000    0.000  0.001 -0.000    0.000 -0.000 -0.000
 O          0.000 -0.000 -0.000   -0.000  0.000  0.000   -0.006 -0.003  0.002
 O         -0.001  0.008 -0.000   -0.000 -0.000 -0.000   -0.000  0.000 -0.000
 C          0.001  0.000  0.000   -0.000 -0.001  0.000   -0.000  0.000  0.000
 Si         0.009 -0.018 -0.028   -0.019 -0.030 -0.000    0.000 -0.000  0.000
 H         -0.232  0.547  0.802   -0.014  0.006  0.025   -0.000  0.000  0.000
 H         -0.002 -0.000 -0.024   -0.010 -0.002 -0.015   -0.000  0.000 -0.000
 H         -0.017 -0.034 -0.009    0.548  0.835 -0.001   -0.000 -0.000  0.000
 H          0.007  0.000 -0.006   -0.002 -0.006 -0.000    0.000  0.000 -0.000
 C         -0.000  0.000  0.000    0.000 -0.000 -0.000   -0.055  0.016  0.006
 H         -0.000 -0.000 -0.001    0.000  0.000  0.001    0.812 -0.450 -0.077
 H          0.000 -0.001 -0.000   -0.000  0.001  0.000   -0.048  0.203 -0.206
 H          0.000  0.001 -0.000   -0.000 -0.001  0.000   -0.014  0.103  0.182
 TransDip   0.166 -0.185 -0.277   -0.218 -0.303 -0.005   -0.007 -0.007 -0.031

 Mode:                31                     32                     33
 Frequency:      3003.51                3034.60                3249.78
 Force Cnst:      5.7446                 5.8179                 6.7690
 Red. Mass:       1.0808                 1.0723                 1.0878
 IR Active:          YES                    YES                    YES
 IR Intens:       39.450                  1.455                  0.451
 Raman Active:       YES                    YES                    YES
               X      Y      Z        X      Y      Z        X      Y      Z
 C         -0.000  0.001  0.000   -0.000  0.000  0.000    0.001 -0.001 -0.000
 O          0.002  0.001 -0.001    0.001 -0.002 -0.004   -0.000 -0.000 -0.000
 O          0.000 -0.000  0.000    0.000  0.000 -0.000    0.000  0.002  0.000
 C          0.000 -0.000 -0.000    0.000  0.000  0.000    0.026 -0.081  0.003
 Si        -0.000  0.000 -0.000   -0.000  0.000 -0.000   -0.001 -0.000 -0.000
 H          0.000 -0.000 -0.000    0.001 -0.000 -0.000    0.000  0.001  0.001
 H          0.000 -0.000  0.000    0.000 -0.000  0.000    0.000  0.001 -0.001
 H          0.000  0.000 -0.000    0.000  0.000  0.000    0.002  0.003 -0.000
 H         -0.000 -0.000  0.000    0.000 -0.001  0.001   -0.299  0.950 -0.030
 C         -0.031  0.068 -0.032   -0.000 -0.023 -0.073    0.000 -0.000 -0.000
 H          0.266 -0.151 -0.059   -0.104  0.037 -0.055   -0.000  0.000  0.000
 H          0.094 -0.577  0.696    0.049 -0.236  0.183   -0.000  0.000  0.001
 H         -0.018 -0.107 -0.242    0.049  0.504  0.794   -0.000  0.000  0.001
 TransDip   0.029  0.190 -0.059    0.033  0.012 -0.016    0.021 -0.005 -0.002

 STANDARD THERMODYNAMIC QUANTITIES AT   298.15 K  AND     1.00 ATM

   This Molecule has  4 Imaginary Frequencies
   Zero point vibrational energy:       52.382 kcal/mol

   Atom    1 Element C  Has Mass   12.00000
   Atom    2 Element O  Has Mass   15.99491
   Atom    3 Element O  Has Mass   15.99491
   Atom    4 Element C  Has Mass   12.00000
   Atom    5 Element Si Has Mass   27.97693
   Atom    6 Element H  Has Mass    1.00783
   Atom    7 Element H  Has Mass    1.00783
   Atom    8 Element H  Has Mass    1.00783
   Atom    9 Element H  Has Mass    1.00783
   Atom   10 Element C  Has Mass   12.00000
   Atom   11 Element H  Has Mass    1.00783
   Atom   12 Element H  Has Mass    1.00783
   Atom   13 Element H  Has Mass    1.00783
   Molecular Mass:   103.021560 amu
   Principal axes and moments of inertia in amu*Bohr^2:
                             1           2           3
    Eigenvalues --      238.87337  2368.42568  2574.47613
          X               0.99994     0.01130    -0.00015
          Y              -0.01130     0.99993    -0.00158
          Z               0.00013     0.00158     1.00000
   Rotational Symmetry Number is   1
   The Molecule is an Asymmetric Top
   Translational Enthalpy:        0.889 kcal/mol
   Rotational Enthalpy:           0.889 kcal/mol
   Vibrational Enthalpy:         55.462 kcal/mol
   gas constant (RT):             0.592 kcal/mol
   Translational Entropy:        39.807  cal/mol.K
   Rotational Entropy:           28.767  cal/mol.K
   Vibrational Entropy:          21.253  cal/mol.K

   Total Enthalpy:               57.832 kcal/mol
   Total Entropy:                89.827  cal/mol.K
Archival summary:
1\1\n161\FREQ\ProcedureUnspecified\6-31G**\i1237(2)\bja39\TueApr2113:46:252015TueApr2113:46:252015\0\\#,FREQ,ProcedureUnspecified,6-31G**,\\0,2\Si\H,1,1.48076\H,1,1.48256,2,109.542\H,1,1.48292,2,109.472,3,-120.281,0\C,1,1.88011,2,108.038,3,119.942,0\H,5,1.08378,1,122.92,2,-1.03684,0\C,5,1.46146,1,117.916,2,179.355,0\O,7,1.16173,5,125.437,1,1.50039,0\O,7,3.21535,5,112.192,1,-178.161,0\C,9,1.37178,7,114.864,5,179.784,0\H,10,1.09975,9,112.76,7,67.531,0\H,10,1.10209,9,112.426,7,-55.3662,0\H,10,1.11585,9,106.554,7,-174.016,0\\\@

 Total job time:  1089.62s(wall), 1014.27s(cpu) 
 Tue Apr 21 13:46:25 2015

        *************************************************************
        *                                                           *
        *  Thank you very much for using Q-Chem.  Have a nice day.  *
        *                                                           *
        *************************************************************


 
User input: 2 of 2 
 
                  Welcome to Q-Chem
     A Quantum Leap Into The Future Of Chemistry


 Q-Chem 4.3 (beta), Q-Chem, Inc., Pleasanton, CA (2015)

 Y. Shao,  Z. Gan,  E. Epifanovsky,  A. T. B. Gilbert,  M. Wormit,  
 J. Kussmann,  A. W. Lange,  A. Behn,  J. Deng,  X. Feng,  D. Ghosh,  
 M. Goldey,  P. R. Horn,  L. D. Jacobson,  I. Kaliman,  R. Z. Khaliullin,  
 T. Kus,  A. Landau,  J. Liu,  E. I. Proynov,  Y. M. Rhee,  R. M. Richard,  
 M. A. Rohrdanz,  R. P. Steele,  E. J. Sundstrom,  H. L. Woodcock III,  
 P. M. Zimmerman,  D. Zuev,  B. Albrecht,  E. Alguire,  B. Austin,  
 S. A. Baeppler,  G. J. O. Beran,  Y. A. Bernard,  E. Berquist,  
 K. Brandhorst,  K. B. Bravaya,  S. T. Brown,  D. Casanova,  C.-M. Chang,  
 Y. Chen,  S. H. Chien,  K. D. Closser,  D. L. Crittenden,  M. Diedenhofen,  
 R. A. DiStasio Jr.,  H. Do,  A. D. Dutoi,  R. G. Edgar,  P.-T. Fang,  
 S. Fatehi,  Q. Feng,  L. Fusti-Molnar,  A. Ghysels,  
 A. Golubeva-Zadorozhnaya,  J. Gomes,  A. Gunina,  M. W. D. Hanson-Heine,  
 P. H. P. Harbach,  A. W. Hauser,  E. G. Hohenstein,  Z. C. Holden,  K. Hui,  
 T.-C. Jagau,  H. Ji,  B. Kaduk,  K. Khistyaev,  Jaehoon Kim,  Jihan Kim,  
 R. A. King,  P. Klunzinger,  D. Kosenkov,  T. Kowalczyk,  C. M. Krauter,  
 K. U. Lao,  A. Laurent,  K. V. Lawler,  S. Lehtola,  S. V. Levchenko,  
 C. Y. Lin,  Y.-S. Lin,  F. Liu,  E. Livshits,  R. C. Lochan,  A. Luenser,  
 P. Manohar,  S. F. Manzer,  S.-P. Mao,  N. Mardirossian,  A. V. Marenich,  
 L. A. Martinez-Martinez,  S. A. Maurer,  N. J. Mayhall,  K. Nanda,  
 C. M. Oana,  R. Olivares-Amaya,  D. P. O'Neill,  J. A. Parkhill,  
 T. M. Perrine,  R. Peverati,  P. A. Pieniazek,  F. Plasser,  A. Prociuk,  
 D. R. Rehn,  E. Rosta,  N. J. Russ,  N. Sergueev,  S. M. Sharada,  
 S. Sharma,  D. W. Small,  A. Sodt,  T. Stauch,  T. Stein,  D. Stuck,  
 Y.-C. Su,  A. J. W. Thom,  T. Tsuchimochi,  L. Vogt,  O. Vydrov,  T. Wang,  
 M. A. Watson,  J. Wenzel,  A. White,  C. F. Williams,  V. Vanovschi,  
 S. Yeganeh,  S. R. Yost,  Z.-Q. You,  I. Y. Zhang,  X. Zhang,  Y. Zhao,  
 B. R. Brooks,  G. K. L. Chan,  D. M. Chipman,  C. J. Cramer,  
 W. A. Goddard III,  M. S. Gordon,  W. J. Hehre,  A. Klamt,  
 H. F. Schaefer III,  M. W. Schmidt,  C. D. Sherrill,  D. G. Truhlar,  
 A. Warshel,  X. Xu,  A. Aspuru-Guzik,  R. Baer,  A. T. Bell,  N. A. Besley,  
 J.-D. Chai,  A. Dreuw,  B. D. Dunietz,  T. R. Furlani,  S. R. Gwaltney,  
 C.-P. Hsu,  Y. Jung,  J. Kong,  D. S. Lambrecht,  W. Liang,  C. Ochsenfeld,  
 V. A. Rassolov,  L. V. Slipchenko,  J. E. Subotnik,  T. Van Voorhis,  
 J. M. Herbert,  A. I. Krylov,  P. M. W. Gill,  M. Head-Gordon

 Contributors to earlier versions of Q-Chem not listed above: 
 R. D. Adamson,  J. Baker,  E. F. C. Byrd,  A. K. Chakraborty,  C.-L. Cheng,  
 H. Dachsel,  R. J. Doerksen,  G. Hawkins,  A. Heyden,  S. Hirata,  
 G. Kedziora,  F. J. Keil,  C. Kelley,  P. P. Korambath,  W. Kurlancheek,  
 A. M. Lee,  M. S. Lee,  D. Liotard,  I. Lotan,  P. E. Maslen,  N. Nair,  
 D. Neuhauser,  R. Olson,  B. Peters,  J. Ritchie,  N. E. Schultz,  
 N. Shenvi,  A. C. Simmonett,  K. S. Thanthiriwatte,  Q. Wu,  W. Zhang

 Please cite Q-Chem as follows:
 Y. Shao et al., Mol. Phys. 113, 184-215 (2014)
 DOI: 10.1080/00268976.2014.952696

 Q-Chem 4.3.0 for Intel X86 EM64T Linux

 Parts of Q-Chem use Armadillo 4.550.3 (Singapore Sling Deluxe).
 http://arma.sourceforge.net/

 Q-Chem begins on Tue Apr 21 13:46:25 2015  

Host: n161
0

     Scratch files written to /scratch/2820957.clusman0a.frank.sam.pitt.edu/6.omegab97x-d_fsm-ts.b1491b66b9c9476296534ad917443737//
 Mar1615 |home|dlambrecht|erb74|opt|apps|qchem|trunk_RNUM -1

Checking the input file for inconsistencies...	...done.

--------------------------------------------------------------
User input:
--------------------------------------------------------------

$molecule
read
$end

$rem
    jobtype                     ts
    exchange                    omegab97x-d
    basis                       6-31G**
    unrestricted                true
    geom_opt_tol_gradient       30
    geom_opt_tol_displacement   120
    geom_opt_tol_energy         10
    geom_opt_max_cycles         300
    geom_opt_hessian            read
    scf_max_cycles              300
    scf_algorithm               diis_gdm
$end
--------------------------------------------------------------
 ----------------------------------------------------------------
             Standard Nuclear Orientation (Angstroms)
    I     Atom           X                Y                Z
 ----------------------------------------------------------------
    1      C       0.0530537354    -0.3454181801    -0.0181445541
    2      O      -2.9423139728     0.8233133599    -0.0002339837
    3      O       0.2758931681    -1.4855551403    -0.0116781088
    4      C       1.0591319062     0.7145818539    -0.0271983901
    5      Si      2.8697827035     0.2100095291     0.0148717377
    6      H       3.1994620658    -0.6050779298    -1.1788375660
    7      H       3.1505122070    -0.5697301014     1.2446119271
    8      H       3.6895406727     1.4431606062     0.0144131418
    9      H       0.7365355603     1.7485876701    -0.0637602360
   10      C      -3.9319906091    -0.1265014447     0.0131774081
   11      H      -4.8970143773     0.4215093475     0.1294895126
   12      H      -3.8275670928    -0.8306392939     0.8545423268
   13      H      -3.9782306416    -0.7059828387    -0.9203734770
 ----------------------------------------------------------------
 Molecular Point Group                 C1    NOp =  1
 Largest Abelian Subgroup              C1    NOp =  1
 Nuclear Repulsion Energy =   241.9305182635 hartrees
 There are       28 alpha and       27 beta electrons
 Requested basis set is 6-31G(d,p)
 There are 46 shells and 129 basis functions

Total QAlloc Memory Limit   2000 MB
Mega-Array Size        61 MB
MEM_STATIC part        62 MB
 A cutoff of  1.0D-12 yielded    803 shell pairs
 There are      6761 function pairs
 
 -------------------------------------------------------
 OpenMP Integral Computing Module                       
 Release: version 1.0, May 2013, Q-Chem Inc. Pittsburgh 
 -------------------------------------------------------
 Integral Job Info:
 Integral job number is                      11
 Integral operator is                         1
 short-range coefficients              22203600
 long-range coefficients              100000000
 Omega coefficients                         200
 if combine SR and LR in K              -999999
 Integral screening is                        0
 Integral computing path is                   2
 max size of driver memory is            800000
 size of driver memory is                593474
 size of scratch memory is             15166112
 max col of scratch BK array               1296
 max len of scratch array in speh3          155
 max len of scratch index in speh4           18
 max int batch size is                      520
 min int batch size is                       52
 fixed nKL is                                52
 max L of basis functions is                  2
 order of int derivative is                   0
 number of shells is                         46
 number of basis is                         129
 number of cartesian basis is               129
 number of contracted shell pairs           803
 number of primitive shell pairs           2933
 maxK2 (contraction) of shell pair           36
 max number of K2 of shell pair               1
 max number of CS2 of shell pair             74
 max number of PS2 of shell pair            306
 mem total for path MDJ                   19960
 -------------------------------------------------------
 Smallest overlap matrix eigenvalue = 4.75E-03

  Scale SEOQF with 1.000000e-01/1.000000e-01/1.000000e+00

 Standard Electronic Orientation quadrupole field applied
 Nucleus-field energy     =     0.0000000109 hartrees
 Guess from superposition of atomic densities
 Warning:  Energy on first SCF cycle will be non-variational
 Long-range K will be added via erf
 Coulomb attenuation parameter = 0.2 bohr**(-1)
 An unrestricted hybrid HF-DFT SCF calculation will be
 performed using Pulay DIIS + Geometric Direct Minimization
 Exchange:     0.2220 Hartree-Fock + 1.0000 wB97X-D + LR-HF
 Correlation:  1.0000 wB97X-D
 Using SG-1 standard quadrature grid
 SCF converges when RMS gradient is below 1.0E-08
 CPU 0.00 s  wall 0.00 s
 CPU 1.24 s  wall 1.24 s

 Total DFTman time = 1.24 CPUs 1.24 Wall
 ---------------------------------------
  Cycle       Energy         DIIS Error
 ---------------------------------------
    1    -558.7424647182      5.58E-02
 CPU 0.00 s  wall 0.00 s
 CPU 1.12 s  wall 1.12 s

 Total DFTman time = 1.12 CPUs 1.12 Wall
    2    -557.7867290584      1.10E-02
 CPU 0.00 s  wall 0.00 s
[...]

 Total DFTman time = 0.27 CPUs 0.27 Wall
  171    -558.2539212523      9.81E-07 Line search: overstep
 CPU 0.00 s  wall 0.00 s
 CPU 0.27 s  wall 0.27 s

 Total DFTman time = 0.27 CPUs 0.27 Wall
  172    -558.2539212523      9.81E-07 Line search: overstep
 CPU 0.00 s  wall 0.00 s
 CPU 0.27 s  wall 0.27 s

 Total DFTman time = 0.27 CPUs 0.27 Wall
  173    -558.2539212523      9.81E-07 Line search: overstep
 CPU 0.00 s  wall 0.00 s
 CPU 0.27 s  wall 0.27 s

 Total DFTman time = 0.27 CPUs 0.27 Wall
  174    -558.2539212523      9.81E-07 Line search: overstep
 CPU 0.00 s  wall 0.00 s
 CPU 0.27 s  wall 0.27 s

 Total DFTman time = 0.27 CPUs 0.27 Wall
  175    -558.2539212523      9.81E-07 Line search: overstep
 CPU 0.00 s  wall 0.00 s
 CPU 0.27 s  wall 0.27 s

 Total DFTman time = 0.27 CPUs 0.27 Wall
  176    -558.2539212523      9.81E-07 Line search: overstep
 CPU 0.00 s  wall 0.00 s
 CPU 0.26 s  wall 0.27 s

 Total DFTman time = 0.26 CPUs 0.27 Wall
  177    -558.2539212523      9.81E-07 Line search: overstep
 CPU 0.00 s  wall 0.00 s
 CPU 0.27 s  wall 0.27 s

 Total DFTman time = 0.27 CPUs 0.27 Wall
  178    -558.2539212523      9.81E-07 Line search: overstep
 CPU 0.00 s  wall 0.00 s
 CPU 0.27 s  wall 0.27 s

 Total DFTman time = 0.27 CPUs 0.27 Wall
  179    -558.2539212523      9.81E-07 Line search: overstep
 CPU 0.00 s  wall 0.00 s
 CPU 0.27 s  wall 0.27 s

 Total DFTman time = 0.27 CPUs 0.27 Wall
  180    -558.2539212523      9.81E-07 Line search: overstep
 CPU 0.00 s  wall 0.00 s
 CPU 0.27 s  wall 0.27 s

 Total DFTman time = 0.27 CPUs 0.27 Wall
  181    -558.2539212523      9.81E-07 Line search: overstep
 CPU 0.00 s  wall 0.00 s
 CPU 0.27 s  wall 0.27 s

 Total DFTman time = 0.27 CPUs 0.27 Wall
  182    -558.2539212523      9.81E-07 Line search: overstep
 CPU 0.00 s  wall 0.00 s
 CPU 0.27 s  wall 0.27 s

 Total DFTman time = 0.27 CPUs 0.27 Wall
  183    -558.2539212523      9.81E-07 Line search: overstep
 CPU 0.00 s  wall 0.00 s
 CPU 0.27 s  wall 0.27 s

 Total DFTman time = 0.27 CPUs 0.27 Wall
  184    -558.2539212523      9.81E-07 Line search: overstep
 CPU 0.00 s  wall 0.00 s
 CPU 0.27 s  wall 0.27 s

 Total DFTman time = 0.27 CPUs 0.27 Wall
  185    -558.2539212523      9.81E-07 Line search: overstep
 CPU 0.00 s  wall 0.00 s
 CPU 0.27 s  wall 0.27 s

 Total DFTman time = 0.27 CPUs 0.27 Wall
  186    -558.2539212523      9.81E-07 Line search: overstep
 CPU 0.00 s  wall 0.00 s
 CPU 0.26 s  wall 0.26 s

 Total DFTman time = 0.26 CPUs 0.26 Wall
  187    -558.2539212523      9.81E-07 Line search: overstep
 CPU 0.00 s  wall 0.00 s
 CPU 0.27 s  wall 0.27 s

 Total DFTman time = 0.27 CPUs 0.27 Wall
  188    -558.2539212523      9.81E-07 Line search: overstep
 CPU 0.00 s  wall 0.00 s
 CPU 0.27 s  wall 0.27 s

 Total DFTman time = 0.27 CPUs 0.27 Wall
  189    -558.2539212523      9.81E-07 Line search: overstep
 CPU 0.00 s  wall 0.00 s
 CPU 0.26 s  wall 0.27 s

 Total DFTman time = 0.26 CPUs 0.27 Wall
  190    -558.2539212523      9.81E-07 Line search: overstep
 CPU 0.00 s  wall 0.00 s
 CPU 0.27 s  wall 0.27 s

 Total DFTman time = 0.27 CPUs 0.27 Wall
  191    -558.2539212523      9.81E-07 Line search: overstep
 CPU 0.00 s  wall 0.00 s
 CPU 0.27 s  wall 0.27 s

 Total DFTman time = 0.27 CPUs 0.27 Wall
  192    -558.2539212523      9.81E-07 Line search: overstep
 CPU 0.00 s  wall 0.00 s
 CPU 0.27 s  wall 0.27 s

 Total DFTman time = 0.27 CPUs 0.27 Wall
  193    -558.2539212523      9.81E-07 Line search: overstep
 CPU 0.00 s  wall 0.00 s
 CPU 0.27 s  wall 0.27 s

 Total DFTman time = 0.27 CPUs 0.27 Wall
  194    -558.2539212523      9.81E-07 Line search: overstep
 CPU 0.00 s  wall 0.00 s
 CPU 0.27 s  wall 0.27 s

 Total DFTman time = 0.27 CPUs 0.27 Wall
  195    -558.2539212523      9.81E-07 Line search: overstep
 CPU 0.00 s  wall 0.00 s
 CPU 0.27 s  wall 0.27 s

 Total DFTman time = 0.27 CPUs 0.27 Wall
  196    -558.2539212523      9.81E-07 Line search: overstep
 CPU 0.00 s  wall 0.00 s
 CPU 0.27 s  wall 0.27 s

 Total DFTman time = 0.27 CPUs 0.27 Wall
  197    -558.2539212523      9.81E-07 Line search: overstep
 CPU 0.00 s  wall 0.00 s
 CPU 0.27 s  wall 0.27 s

 Total DFTman time = 0.27 CPUs 0.27 Wall
  198    -558.2539212523      9.81E-07 Line search: overstep
 CPU 0.00 s  wall 0.00 s
 CPU 0.27 s  wall 0.27 s

 Total DFTman time = 0.27 CPUs 0.27 Wall
  199    -558.2539212523      9.81E-07 Line search: overstep
 CPU 0.00 s  wall 0.00 s
 CPU 0.27 s  wall 0.27 s

 Total DFTman time = 0.27 CPUs 0.27 Wall
  200    -558.2539212523      9.81E-07 Line search: overstep
 CPU 0.00 s  wall 0.00 s
 CPU 0.27 s  wall 0.27 s

 Total DFTman time = 0.27 CPUs 0.27 Wall
  201    -558.2539212523      9.81E-07 Line search: overstep
 CPU 0.00 s  wall 0.00 s
 CPU 0.27 s  wall 0.27 s

 Total DFTman time = 0.27 CPUs 0.27 Wall
  202    -558.2539212523      9.81E-07 Line search: overstep
 CPU 0.00 s  wall 0.00 s
 CPU 0.27 s  wall 0.27 s

 Total DFTman time = 0.27 CPUs 0.27 Wall
  203    -558.2539212523      9.81E-07 Line search: overstep
 CPU 0.00 s  wall 0.00 s
 CPU 0.27 s  wall 0.27 s

 Total DFTman time = 0.27 CPUs 0.27 Wall
  204    -558.2539212523      9.81E-07 Line search: overstep
 CPU 0.00 s  wall 0.00 s
 CPU 0.27 s  wall 0.27 s

 Total DFTman time = 0.27 CPUs 0.27 Wall
  205    -558.2539212523      9.81E-07 Line search: overstep
 CPU 0.00 s  wall 0.00 s
 CPU 0.27 s  wall 0.27 s

 Total DFTman time = 0.27 CPUs 0.27 Wall
  206    -558.2539212523      9.81E-07 Line search: overstep
 CPU 0.00 s  wall 0.00 s
 CPU 0.27 s  wall 0.27 s

 Total DFTman time = 0.27 CPUs 0.27 Wall
  207    -558.2539212523      9.81E-07 Line search: overstep
 CPU 0.00 s  wall 0.00 s
 CPU 0.26 s  wall 0.27 s

 Total DFTman time = 0.26 CPUs 0.27 Wall
  208    -558.2539212523      9.81E-07 Line search: overstep
 CPU 0.00 s  wall 0.00 s
 CPU 0.27 s  wall 0.27 s

 Total DFTman time = 0.27 CPUs 0.27 Wall
  209    -558.2539212523      9.81E-07 Line search: overstep
 CPU 0.00 s  wall 0.00 s
 CPU 0.27 s  wall 0.27 s

 Total DFTman time = 0.27 CPUs 0.27 Wall
  210    -558.2539212523      9.81E-07 Line search: overstep
 CPU 0.00 s  wall 0.00 s
 CPU 0.27 s  wall 0.27 s

 Total DFTman time = 0.27 CPUs 0.27 Wall
  211    -558.2539212523      9.81E-07 Line search: overstep
 CPU 0.00 s  wall 0.00 s
 CPU 0.27 s  wall 0.27 s

 Total DFTman time = 0.27 CPUs 0.27 Wall
  212    -558.2539212523      9.81E-07 Line search: overstep
 CPU 0.00 s  wall 0.00 s
 CPU 0.27 s  wall 0.27 s

 Total DFTman time = 0.27 CPUs 0.27 Wall
  213    -558.2539212523      9.81E-07 Line search: overstep
 CPU 0.00 s  wall 0.00 s
 CPU 0.27 s  wall 0.27 s

 Total DFTman time = 0.27 CPUs 0.27 Wall
  214    -558.2539212523      9.81E-07 Line search: overstep
 CPU 0.00 s  wall 0.00 s
 CPU 0.27 s  wall 0.27 s

 Total DFTman time = 0.27 CPUs 0.27 Wall
  215    -558.2539212523      9.81E-07 Line search: overstep
 CPU 0.00 s  wall 0.00 s
 CPU 0.27 s  wall 0.27 s

 Total DFTman time = 0.27 CPUs 0.27 Wall
  216    -558.2539212523      9.81E-07 Line search: overstep
 CPU 0.00 s  wall 0.00 s
 CPU 0.27 s  wall 0.27 s

 Total DFTman time = 0.27 CPUs 0.27 Wall
  217    -558.2539212523      9.81E-07 Line search: overstep
 CPU 0.00 s  wall 0.00 s
 CPU 0.27 s  wall 0.27 s

 Total DFTman time = 0.27 CPUs 0.27 Wall
  218    -558.2539212523      9.81E-07 Line search: overstep
 CPU 0.00 s  wall 0.00 s
 CPU 0.27 s  wall 0.27 s

 Total DFTman time = 0.27 CPUs 0.27 Wall
  219    -558.2539212523      9.81E-07 Line search: overstep
 CPU 0.00 s  wall 0.00 s
 CPU 0.27 s  wall 0.27 s

 Total DFTman time = 0.27 CPUs 0.27 Wall
  220    -558.2539212523      9.81E-07 Line search: overstep
 CPU 0.00 s  wall 0.00 s
 CPU 0.27 s  wall 0.27 s

 Total DFTman time = 0.27 CPUs 0.27 Wall
  221    -558.2539212523      9.81E-07 Line search: overstep
 CPU 0.00 s  wall 0.00 s
 CPU 0.27 s  wall 0.27 s

 Total DFTman time = 0.27 CPUs 0.27 Wall
  222    -558.2539212523      9.81E-07 Line search: overstep
 CPU 0.00 s  wall 0.00 s
 CPU 0.27 s  wall 0.27 s

 Total DFTman time = 0.27 CPUs 0.27 Wall
  223    -558.2539212523      9.81E-07 Line search: overstep
 CPU 0.00 s  wall 0.00 s
 CPU 0.27 s  wall 0.27 s

 Total DFTman time = 0.27 CPUs 0.27 Wall
  224    -558.2539212523      9.81E-07 Line search: overstep
 CPU 0.00 s  wall 0.00 s
 CPU 0.27 s  wall 0.27 s

 Total DFTman time = 0.27 CPUs 0.27 Wall
  225    -558.2539212523      9.81E-07 Line search: overstep
 CPU 0.00 s  wall 0.00 s
 CPU 0.28 s  wall 0.28 s

 Total DFTman time = 0.28 CPUs 0.28 Wall
  226    -558.2539212523      9.81E-07 Line search: overstep
 CPU 0.00 s  wall 0.00 s
 CPU 0.27 s  wall 0.27 s

 Total DFTman time = 0.27 CPUs 0.27 Wall
  227    -558.2539212523      9.81E-07 Line search: overstep
 CPU 0.00 s  wall 0.00 s
 CPU 0.26 s  wall 0.27 s

 Total DFTman time = 0.26 CPUs 0.27 Wall
  228    -558.2539212523      9.81E-07 Line search: overstep
 CPU 0.00 s  wall 0.00 s
 CPU 0.27 s  wall 0.27 s

 Total DFTman time = 0.27 CPUs 0.27 Wall
  229    -558.2539212523      9.81E-07 Line search: overstep
 CPU 0.00 s  wall 0.00 s
 CPU 0.27 s  wall 0.27 s

 Total DFTman time = 0.27 CPUs 0.27 Wall
  230    -558.2539212523      9.81E-07 Line search: overstep
 CPU 0.00 s  wall 0.00 s
 CPU 0.27 s  wall 0.27 s

 Total DFTman time = 0.27 CPUs 0.27 Wall
  231    -558.2539212523      9.81E-07 Line search: overstep
 CPU 0.00 s  wall 0.00 s
 CPU 0.27 s  wall 0.27 s

 Total DFTman time = 0.27 CPUs 0.27 Wall
  232    -558.2539212523      9.81E-07 Line search: overstep
 CPU 0.00 s  wall 0.00 s
 CPU 0.27 s  wall 0.27 s

 Total DFTman time = 0.27 CPUs 0.27 Wall
  233    -558.2539212523      9.81E-07 Line search: overstep
 CPU 0.00 s  wall 0.00 s
 CPU 0.27 s  wall 0.27 s

 Total DFTman time = 0.27 CPUs 0.27 Wall
  234    -558.2539212523      9.81E-07 Line search: overstep
 CPU 0.00 s  wall 0.00 s
 CPU 0.27 s  wall 0.27 s

 Total DFTman time = 0.27 CPUs 0.27 Wall
  235    -558.2539212523      9.81E-07 Line search: overstep
 CPU 0.00 s  wall 0.00 s
 CPU 0.27 s  wall 0.27 s

 Total DFTman time = 0.27 CPUs 0.27 Wall
  236    -558.2539212523      9.81E-07 Line search: overstep
 CPU 0.00 s  wall 0.00 s
 CPU 0.27 s  wall 0.27 s

 Total DFTman time = 0.27 CPUs 0.27 Wall
  237    -558.2539212523      9.81E-07 Line search: overstep
 CPU 0.00 s  wall 0.00 s
 CPU 0.27 s  wall 0.27 s

 Total DFTman time = 0.27 CPUs 0.27 Wall
  238    -558.2539212523      9.81E-07 Line search: overstep
 CPU 0.00 s  wall 0.00 s
 CPU 0.27 s  wall 0.27 s

 Total DFTman time = 0.27 CPUs 0.27 Wall
  239    -558.2539212523      9.81E-07 Line search: overstep
 CPU 0.00 s  wall 0.00 s
 CPU 0.27 s  wall 0.27 s

 Total DFTman time = 0.27 CPUs 0.27 Wall
  240    -558.2539212523      9.81E-07 Line search: overstep
 CPU 0.00 s  wall 0.00 s
 CPU 0.27 s  wall 0.27 s

 Total DFTman time = 0.27 CPUs 0.27 Wall
  241    -558.2539212523      9.81E-07 Line search: overstep
 CPU 0.00 s  wall 0.00 s
 CPU 0.27 s  wall 0.27 s

 Total DFTman time = 0.27 CPUs 0.27 Wall
  242    -558.2539212523      9.81E-07 Line search: overstep
 CPU 0.00 s  wall 0.00 s
 CPU 0.26 s  wall 0.26 s

 Total DFTman time = 0.26 CPUs 0.26 Wall
  243    -558.2539212523      9.81E-07 Line search: overstep
 CPU 0.00 s  wall 0.00 s
 CPU 0.27 s  wall 0.27 s

 Total DFTman time = 0.27 CPUs 0.27 Wall
  244    -558.2539212523      9.81E-07 Line search: overstep
 CPU 0.00 s  wall 0.00 s
 CPU 0.27 s  wall 0.27 s

 Total DFTman time = 0.27 CPUs 0.27 Wall
  245    -558.2539212523      9.81E-07 Line search: overstep
 CPU 0.00 s  wall 0.00 s
 CPU 0.27 s  wall 0.27 s

 Total DFTman time = 0.27 CPUs 0.27 Wall
  246    -558.2539212523      9.81E-07 Line search: overstep
 CPU 0.00 s  wall 0.00 s
 CPU 0.27 s  wall 0.27 s

 Total DFTman time = 0.27 CPUs 0.27 Wall
  247    -558.2539212523      9.81E-07 Line search: overstep
 CPU 0.00 s  wall 0.00 s
 CPU 0.27 s  wall 0.27 s

 Total DFTman time = 0.27 CPUs 0.27 Wall
  248    -558.2539212523      9.81E-07 Line search: overstep
 CPU 0.00 s  wall 0.00 s
 CPU 0.27 s  wall 0.27 s

 Total DFTman time = 0.27 CPUs 0.27 Wall
  249    -558.2539212523      9.81E-07 Line search: overstep
 CPU 0.00 s  wall 0.00 s
 CPU 0.27 s  wall 0.27 s

 Total DFTman time = 0.27 CPUs 0.27 Wall
  250    -558.2539212523      9.81E-07 Line search: overstep
 CPU 0.00 s  wall 0.00 s
 CPU 0.26 s  wall 0.27 s

 Total DFTman time = 0.26 CPUs 0.27 Wall
  251    -558.2539212523      9.81E-07 Line search: overstep
 CPU 0.00 s  wall 0.00 s
 CPU 0.26 s  wall 0.27 s

 Total DFTman time = 0.26 CPUs 0.27 Wall
  252    -558.2539212523      9.81E-07 Line search: overstep
 CPU 0.00 s  wall 0.00 s
 CPU 0.27 s  wall 0.27 s

 Total DFTman time = 0.27 CPUs 0.27 Wall
  253    -558.2539212523      9.81E-07 Line search: overstep
 CPU 0.00 s  wall 0.00 s
 CPU 0.27 s  wall 0.27 s

 Total DFTman time = 0.27 CPUs 0.27 Wall
  254    -558.2539212523      9.81E-07 Line search: overstep
 CPU 0.00 s  wall 0.00 s
 CPU 0.27 s  wall 0.27 s

 Total DFTman time = 0.27 CPUs 0.27 Wall
  255    -558.2539212523      9.81E-07 Line search: overstep
 CPU 0.00 s  wall 0.00 s
 CPU 0.27 s  wall 0.27 s

 Total DFTman time = 0.27 CPUs 0.27 Wall
  256    -558.2539212523      9.81E-07 Line search: overstep
 CPU 0.00 s  wall 0.00 s
 CPU 0.27 s  wall 0.27 s

 Total DFTman time = 0.27 CPUs 0.27 Wall
  257    -558.2539212523      9.81E-07 Line search: overstep
 CPU 0.00 s  wall 0.00 s
 CPU 0.27 s  wall 0.27 s

 Total DFTman time = 0.27 CPUs 0.27 Wall
  258    -558.2539212523      9.81E-07 Line search: overstep
 CPU 0.00 s  wall 0.00 s
 CPU 0.27 s  wall 0.27 s

 Total DFTman time = 0.27 CPUs 0.27 Wall
  259    -558.2539212523      9.81E-07 Line search: overstep
 CPU 0.00 s  wall 0.00 s
 CPU 0.27 s  wall 0.27 s

 Total DFTman time = 0.27 CPUs 0.27 Wall
  260    -558.2539212523      9.81E-07 Line search: overstep
 CPU 0.00 s  wall 0.00 s
 CPU 0.27 s  wall 0.27 s

 Total DFTman time = 0.27 CPUs 0.27 Wall
  261    -558.2539212523      9.81E-07 Line search: overstep
 CPU 0.00 s  wall 0.00 s
 CPU 0.27 s  wall 0.27 s

 Total DFTman time = 0.27 CPUs 0.27 Wall
  262    -558.2539212523      9.81E-07 Line search: overstep
 CPU 0.00 s  wall 0.00 s
 CPU 0.27 s  wall 0.27 s

 Total DFTman time = 0.27 CPUs 0.27 Wall
  263    -558.2539212523      9.81E-07 Line search: overstep
 CPU 0.00 s  wall 0.00 s
 CPU 0.27 s  wall 0.27 s

 Total DFTman time = 0.27 CPUs 0.27 Wall
  264    -558.2539212523      9.81E-07 Line search: overstep
 CPU 0.00 s  wall 0.00 s
 CPU 0.27 s  wall 0.27 s

 Total DFTman time = 0.27 CPUs 0.27 Wall
  265    -558.2539212523      9.81E-07 Line search: overstep
 CPU 0.00 s  wall 0.00 s
 CPU 0.27 s  wall 0.27 s

 Total DFTman time = 0.27 CPUs 0.27 Wall
  266    -558.2539212523      9.81E-07 Line search: overstep
 CPU 0.00 s  wall 0.00 s
 CPU 0.27 s  wall 0.27 s

 Total DFTman time = 0.27 CPUs 0.27 Wall
  267    -558.2539212523      9.81E-07 Line search: overstep
 CPU 0.00 s  wall 0.00 s
 CPU 0.27 s  wall 0.27 s

 Total DFTman time = 0.27 CPUs 0.27 Wall
  268    -558.2539212523      9.81E-07 Line search: overstep
 CPU 0.00 s  wall 0.00 s
 CPU 0.27 s  wall 0.27 s

 Total DFTman time = 0.27 CPUs 0.27 Wall
  269    -558.2539212523      9.81E-07 Line search: overstep
 CPU 0.00 s  wall 0.00 s
 CPU 0.26 s  wall 0.27 s

 Total DFTman time = 0.26 CPUs 0.27 Wall
  270    -558.2539212523      9.81E-07 Line search: overstep
 CPU 0.00 s  wall 0.00 s
 CPU 0.26 s  wall 0.27 s

 Total DFTman time = 0.26 CPUs 0.27 Wall
  271    -558.2539212523      9.81E-07 Line search: overstep
 CPU 0.00 s  wall 0.00 s
 CPU 0.27 s  wall 0.27 s

 Total DFTman time = 0.27 CPUs 0.27 Wall
  272    -558.2539212523      9.81E-07 Line search: overstep
 CPU 0.00 s  wall 0.00 s
 CPU 0.27 s  wall 0.27 s

 Total DFTman time = 0.27 CPUs 0.27 Wall
  273    -558.2539212523      9.81E-07 Line search: overstep
 CPU 0.00 s  wall 0.00 s
 CPU 0.27 s  wall 0.27 s

 Total DFTman time = 0.27 CPUs 0.27 Wall
  274    -558.2539212523      9.81E-07 Line search: overstep
 CPU 0.00 s  wall 0.00 s
 CPU 0.27 s  wall 0.27 s

 Total DFTman time = 0.27 CPUs 0.27 Wall
  275    -558.2539212523      9.81E-07 Line search: overstep
 CPU 0.00 s  wall 0.00 s
 CPU 0.26 s  wall 0.27 s

 Total DFTman time = 0.26 CPUs 0.27 Wall
  276    -558.2539212523      9.81E-07 Line search: overstep
 CPU 0.00 s  wall 0.00 s
 CPU 0.27 s  wall 0.27 s

 Total DFTman time = 0.27 CPUs 0.27 Wall
  277    -558.2539212523      9.81E-07 Line search: overstep
 CPU 0.00 s  wall 0.00 s
 CPU 0.27 s  wall 0.27 s

 Total DFTman time = 0.27 CPUs 0.27 Wall
  278    -558.2539212523      9.81E-07 Line search: overstep
 CPU 0.00 s  wall 0.00 s
 CPU 0.27 s  wall 0.27 s

 Total DFTman time = 0.27 CPUs 0.27 Wall
  279    -558.2539212523      9.81E-07 Line search: overstep
 CPU 0.00 s  wall 0.00 s
 CPU 0.27 s  wall 0.27 s

 Total DFTman time = 0.27 CPUs 0.27 Wall
  280    -558.2539212523      9.81E-07 Line search: overstep
 CPU 0.00 s  wall 0.00 s
 CPU 0.27 s  wall 0.27 s

 Total DFTman time = 0.27 CPUs 0.27 Wall
  281    -558.2539212523      9.81E-07 Line search: overstep
 CPU 0.00 s  wall 0.00 s
 CPU 0.27 s  wall 0.27 s

 Total DFTman time = 0.27 CPUs 0.27 Wall
  282    -558.2539212523      9.81E-07 Line search: overstep
 CPU 0.00 s  wall 0.00 s
 CPU 0.27 s  wall 0.27 s

 Total DFTman time = 0.27 CPUs 0.27 Wall
  283    -558.2539212523      9.81E-07 Line search: overstep
 CPU 0.00 s  wall 0.00 s
 CPU 0.27 s  wall 0.27 s

 Total DFTman time = 0.27 CPUs 0.27 Wall
  284    -558.2539212523      9.81E-07 Line search: overstep
 CPU 0.00 s  wall 0.00 s
 CPU 0.27 s  wall 0.27 s

 Total DFTman time = 0.27 CPUs 0.27 Wall
  285    -558.2539212523      9.81E-07 Line search: overstep
 CPU 0.00 s  wall 0.00 s
 CPU 0.26 s  wall 0.27 s

 Total DFTman time = 0.26 CPUs 0.27 Wall
  286    -558.2539212523      9.81E-07 Line search: overstep
 CPU 0.00 s  wall 0.00 s
 CPU 0.27 s  wall 0.27 s

 Total DFTman time = 0.27 CPUs 0.27 Wall
  287    -558.2539212523      9.81E-07 Line search: overstep
 CPU 0.00 s  wall 0.00 s
 CPU 0.27 s  wall 0.27 s

 Total DFTman time = 0.27 CPUs 0.27 Wall
  288    -558.2539212523      9.81E-07 Line search: overstep
 CPU 0.00 s  wall 0.00 s
 CPU 0.28 s  wall 0.28 s

 Total DFTman time = 0.28 CPUs 0.28 Wall
  289    -558.2539212523      9.81E-07 Line search: overstep
 CPU 0.00 s  wall 0.00 s
 CPU 0.27 s  wall 0.27 s

 Total DFTman time = 0.27 CPUs 0.27 Wall
  290    -558.2539212523      9.81E-07 Line search: overstep
 CPU 0.00 s  wall 0.00 s
 CPU 0.27 s  wall 0.27 s

 Total DFTman time = 0.27 CPUs 0.27 Wall
  291    -558.2539212523      9.81E-07 Line search: overstep
 CPU 0.00 s  wall 0.00 s
 CPU 0.27 s  wall 0.27 s

 Total DFTman time = 0.27 CPUs 0.27 Wall
  292    -558.2539212523      9.81E-07 Line search: overstep
 CPU 0.00 s  wall 0.00 s
 CPU 0.27 s  wall 0.27 s

 Total DFTman time = 0.27 CPUs 0.27 Wall
  293    -558.2539212523      9.81E-07 Line search: overstep
 CPU 0.00 s  wall 0.00 s
 CPU 0.27 s  wall 0.27 s

 Total DFTman time = 0.27 CPUs 0.27 Wall
  294    -558.2539212523      9.81E-07 Line search: overstep
 CPU 0.00 s  wall 0.00 s
 CPU 0.27 s  wall 0.27 s

 Total DFTman time = 0.27 CPUs 0.27 Wall
  295    -558.2539212523      9.81E-07 Line search: overstep
 CPU 0.00 s  wall 0.00 s
 CPU 0.27 s  wall 0.27 s

 Total DFTman time = 0.27 CPUs 0.27 Wall
  296    -558.2539212523      9.81E-07 Line search: overstep
 CPU 0.00 s  wall 0.00 s
 CPU 0.26 s  wall 0.26 s

 Total DFTman time = 0.26 CPUs 0.26 Wall
  297    -558.2539212523      9.81E-07 Line search: overstep
 CPU 0.00 s  wall 0.00 s
 CPU 0.26 s  wall 0.27 s

 Total DFTman time = 0.26 CPUs 0.27 Wall
  298    -558.2539212523      9.81E-07 Line search: overstep
 CPU 0.00 s  wall 0.00 s
 CPU 0.27 s  wall 0.27 s

 Total DFTman time = 0.27 CPUs 0.27 Wall
  299    -558.2539212523      9.81E-07 Line search: overstep
 CPU 0.00 s  wall 0.00 s
 CPU 0.27 s  wall 0.27 s

 Total DFTman time = 0.27 CPUs 0.27 Wall
  300    -558.2539212523      9.81E-07    Convergence failure

 Q-Chem fatal error occurred in module /home/dlambrecht/erb74/opt/apps/qchem/trunk_intel_release/scfman/scfman.C, line 4409:

 SCF failed to converge

