3
	Energy:     280.2443669
B         -2.62173       -1.14036       -1.18920
B         -1.45454       -2.01577       -0.40582
B         -2.90036       -2.72406       -0.79346
