3
	Energy:     280.2443669
B         -4.32703       -0.25031       -0.00005
B         -2.87536        0.54656        0.00001
B         -2.91109       -1.10906        0.00003
