                  Welcome to Q-Chem
     A Quantum Leap Into The Future Of Chemistry


 Q-Chem 4.2, Q-Chem, Inc., Pleasanton, CA (2014).

 Y. Shao,  Z. Gan,  E. Epifanovsky,  A. T. B. Gilbert,  M. Wormit,  
 J. Kussmann,  A. W. Lange,  A. Behn,  J. Deng,  X. Feng,  D. Ghosh,  
 M. Goldey,  P. R. Horn,  L. D. Jacobson,  I. Kaliman,  R. Z. Khaliullin,  
 T. Kus,  A. Landau,  J. Liu,  E. I. Proynov,  Y. M. Rhee,  R. M. Richard,  
 M. A. Rohrdanz,  R. P. Steele,  E. J. Sundstrom,  H. L. Woodcock III,  
 P. M. Zimmerman,  D. Zuev,  B. Albrecht,  E. Alguire,  B. Austin,  
 G. J. O. Beran,  Y. A. Bernard,  E. Berquist,  K. Brandhorst,  
 K. B. Bravaya,  S. T. Brown,  D. Casanova,  C.-M. Chang,  Y. Chen,  
 S. H. Chien,  K. D. Closser,  D. L. Crittenden,  M. Diedenhofen,  
 R. A. DiStasio Jr.,  H. Do,  A. D. Dutoi,  R. G. Edgar,  S. Fatehi,  
 L. Fusti-Molnar,  A. Ghysels,  A. Golubeva-Zadorozhnaya,  J. Gomes,  
 M. W. D. Hanson-Heine,  P. H. P. Harbach,  A. W. Hauser,  E. G. Hohenstein,  
 Z. C. Holden,  T.-C. Jagau,  H. Ji,  B. Kaduk,  K. Khistyaev,  Jaehoon Kim,  
 Jihan Kim,  R. A. King,  P. Klunzinger,  D. Kosenkov,  T. Kowalczyk,  
 C. M. Krauter,  K. U. Lao,  A. Laurent,  K. V. Lawler,  S. V. Levchenko,  
 C. Y. Lin,  F. Liu,  E. Livshits,  R. C. Lochan,  A. Luenser,  P. Manohar,  
 S. F. Manzer,  S.-P. Mao,  N. Mardirossian,  A. V. Marenich,  S. A. Maurer,  
 N. J. Mayhall,  C. M. Oana,  R. Olivares-Amaya,  D. P. O'Neill,  
 J. A. Parkhill,  T. M. Perrine,  R. Peverati,  P. A. Pieniazek,  A. Prociuk,  
 D. R. Rehn,  E. Rosta,  N. J. Russ,  N. Sergueev,  S. M. Sharada,  
 S. Sharma,  D. W. Small,  A. Sodt,  T. Stein,  D. Stuck,  Y.-C. Su,  
 A. J. W. Thom,  T. Tsuchimochi,  L. Vogt,  O. Vydrov,  T. Wang,  
 M. A. Watson,  J. Wenzel,  A. White,  C. F. Williams,  V. Vanovschi,  
 S. Yeganeh,  S. R. Yost,  Z.-Q. You,  I. Y. Zhang,  X. Zhang,  Y. Zhao,  
 B. R. Brooks,  G. K. L. Chan,  D. M. Chipman,  C. J. Cramer,  
 W. A. Goddard III,  M. S. Gordon,  W. J. Hehre,  A. Klamt,  
 H. F. Schaefer III,  M. W. Schmidt,  C. D. Sherrill,  D. G. Truhlar,  
 A. Warshel,  X. Xu,  A. Aspuru-Guzik,  R. Baer,  A. T. Bell,  N. A. Besley,  
 J.-D. Chai,  A. Dreuw,  B. D. Dunietz,  T. R. Furlani,  S. R. Gwaltney,  
 C.-P. Hsu,  Y. Jung,  J. Kong,  D. S. Lambrecht,  W. Liang,  C. Ochsenfeld,  
 V. A. Rassolov,  L. V. Slipchenko,  J. E. Subotnik,  T. Van Voorhis,  
 J. M. Herbert,  A. I. Krylov,  P. M. W. Gill,  M. Head-Gordon

 Contributors to earlier versions of Q-Chem not listed above: 
 R. D. Adamson,  J. Baker,  E. F. C. Byrd,  A. K. Chakraborty,  C.-L. Cheng,  
 H. Dachsel,  R. J. Doerksen,  G. Hawkins,  A. Heyden,  S. Hirata,  
 G. Kedziora,  F. J. Keil,  C. Kelley,  P. P. Korambath,  W. Kurlancheek,  
 A. M. Lee,  M. S. Lee,  D. Liotard,  I. Lotan,  P. E. Maslen,  N. Nair,  
 D. Neuhauser,  R. Olson,  B. Peters,  J. Ritchie,  N. E. Schultz,  
 N. Shenvi,  A. C. Simmonett,  K. S. Thanthiriwatte,  Q. Wu,  W. Zhang

 Q-Chem 4.2.0 for Intel X86 EM64T Linux

 Parts of Q-Chem use Armadillo 4.100.2 (Dirt Cruiser).
 http://arma.sourceforge.net/

 Q-Chem begins on Mon Dec 15 15:58:09 2014  

Host: n64
0

     Scratch files written to /home/dlambrecht/bja39/scratch/ts1.3.0.76fe4876fc5e49aeaae229f6854c34e5//
 Jun514 |home|dlambrecht|erb74|opt|apps|qchem|trunk_intel_debug|libmdc|qstr_info.C -1
 Using version located at /home/dlambrecht/software/qchem42.trunk.20140824.omp.debug/bin/qchem


Total Memory Limit in MB = 2000
Mega-Array Size in MB = 62
Checking the input file for consistency...	...done.
Finally everything over in PARseQInput

--------------------------------------------------------------
User input:
--------------------------------------------------------------
$comment
A + B -> alpha-B
Reaction 1 (TS1)
Bond Length contrained at ~3 Angstroms
$end

$molecule
0  2
C         -3.53907       -0.26833        0.62085
C         -5.01648       -0.24503        0.21224
C         -1.29592       -2.16806        0.09244
C         -1.94197       -3.31522       -0.70459
H         -2.53221       -2.95156       -1.56937
H         -2.61851       -3.87589       -0.01918
H         -1.19382       -4.05484       -1.06072
C         -0.56809       -2.81463        1.20192
C         -0.21364       -1.38238       -0.69544
H          0.60087       -2.04010       -1.07310
H          0.28243       -0.65219       -0.00955
H         -0.62854       -0.79410       -1.53931
N          0.04556       -3.35561        2.02082
O         -3.14526        0.68269        1.28016
Si        -6.29481       -1.65011        0.13500
H         -6.26719       -2.38954       -1.14354
H         -7.61936       -1.00562        0.08007
H         -6.35240       -2.57813        1.27204
H         -5.25933        0.58018       -0.48215
$end

$rem
JOBTYPE            opt
exchange           omegaB97X-D
basis              6-31G**
$end

$opt
CONSTRAINT
stre 1 3   3.0
ENDCONSTRAINT
$end
--------------------------------------------------------------
 ----------------------------------------------------------------
             Standard Nuclear Orientation (Angstroms)
    I     Atom           X                Y                Z
 ----------------------------------------------------------------
    1      C      -0.9433033797    -1.1835370286    -0.0714487954
    2      C      -2.3873816391    -0.7313314013     0.1743018541
    3      C       1.7096355670     0.1365248016     0.3017332420
    4      C       1.3685074061     1.5589753779     0.7801466875
    5      H       0.6599990486     1.5617456558     1.6324873087
    6      H       0.9070002039     2.1100833069    -0.0714020435
    7      H       2.2740217892     2.1386975839     1.0586437425
    8      C       2.6401489662     0.3098208670    -0.8308957493
    9      C       2.4934632284    -0.7088018209     1.3411634001
   10      H       3.4389968322    -0.2185376304     1.6640510613
   11      H       2.8005922443    -1.6757597155     0.8717252566
   12      H       1.8921512769    -0.9673397655     2.2366599180
   13      N       3.4179526735     0.4778017338    -1.6715066665
   14      O      -0.7966534809    -2.3256364287    -0.4817143190
   15      Si     -3.2295900363     0.9385404946    -0.1671015434
   16      H      -3.0599114379     1.9092836952     0.9333760496
   17      H      -4.6817443279     0.6888812082    -0.1254419491
   18      H      -2.9738092486     1.5742912751    -1.4662531218
   19      H      -2.8818976330    -1.2903380190     0.9898327682
 ----------------------------------------------------------------
 Molecular Point Group                 C1    NOp =  1
 Largest Abelian Subgroup              C1    NOp =  1
 Nuclear Repulsion Energy =   431.0435388057 hartrees
 There are       38 alpha and       37 beta electrons
 Requested basis set is 6-31G(d,p)
 There are 67 shells and 189 basis functions

Total QAlloc Memory Limit   2000 MB
Mega-Array Size        61 MB
MEM_STATIC part        62 MB

finished with qalloc call
 Job number = 2, Threshold = 1.00E-11
Integral type ranges set in mkLRange.C for JobNum: 2  <1-21|1-21>
Symmetry turned off temporarily
 Using the largest function pair in Schwarz integrals
Total number of integrals generated =          224899
Symmetry turned back on
 A cutoff of  1.0D-11 yielded   1676 shell pairs
 There are     13927 function pairs
 Job number = 11, Threshold = 1.00E-11
Integral type ranges set in mkLRange.C for JobNum: 11  <1-21|22-22>
Total number of integrals generated =          264613
 Smallest overlap matrix eigenvalue = 1.41E-03
 Multipole matrices computed through 2nd order

  Scale SEOQF with 1.000000e-01/1.000000e-01/1.000000e-01

 Standard Electronic Orientation quadrupole field applied
 Nucleus-field energy     =     0.0000000181 hartrees
 Guess from superposition of atomic densities
 Warning:  Energy on first SCF cycle will be non-variational
scfman initvdwdat 
 Long-range K will be added via erf
 Coulomb attenuation parameter = 0.2 bohr**(-1)
 An unrestricted hybrid HF-DFT SCF calculation will be
 performed using Pulay DIIS extrapolation
 Exchange:     0.2220 Hartree-Fock + 1.0000 wB97X-D + LR-HF
 Correlation:  1.0000 wB97X-D
 Using SG-1 standard quadrature grid
 SCF converges when DIIS error is below 1.0E-08
Using Integral Screening
 Building regular ol' J (integral screening version)
 Job number = 20, Threshold = 1.00E-11
 using 4 threads for integral computing 
Integral type ranges set in mkLRange.C for JobNum: 20  <1-21|1-21>
 
 -------------------------------------------------------
 OpenMP Integral Computing Module                       
 Release: version 1.0, May 2013, Q-Chem Inc. Pittsburgh 
 -------------------------------------------------------
 Integral Job Info:
 Integral job number is                      20
 Integral operator is                         1
 short-range coefficients              22203600
 long-range coefficients              100000000
 Omega coefficients                         200
 if combine SR and LR in K              -999999
 Integral screening is                        1
 Integral computing path is                   2
 max size of driver memory is            800000
 size of driver memory is                593606
 size of scratch memory is              4374840
 max col of scratch BK array               1296
 max len of scratch array in speh3          155
 max len of scratch index in speh4           18
 max int batch size is                       50
 min int batch size is                       15
 fixed nKL is                                15
 max L of basis functions is                  2
 order of int derivative is                   0
 number of shells is                         67
 number of basis is                         189
 number of cartesian basis is               189
 number of contracted shell pairs          1676
 number of primitive shell pairs           5438
 maxK2 (contraction) of shell pair           36
 max number of K2 of shell pair               1
 max number of CS2 of shell pair            167
 max number of PS2 of shell pair            642
 mem total for path MDJ                   29320
 -------------------------------------------------------
         cpu   2.60 wall   0.65
 Building long-range K (w = 2.000e-01)
ML is being used
 Job number = 21, Threshold = 1.00E-11
 using 4 threads for integral computing 
Integral type ranges set in mkLRange.C for JobNum: 21  <1-21|1-21>
         cpu   2.45 wall   0.61
 MakeK time:  CPU       2.77 s  wall       0.70 s
 K construction time:  CPU 2.77 s  wall 0.70 s
 Building short-range K (Use_dP version)
ML is being used
 Job number = 21, Threshold = 1.00E-11
 using 4 threads for integral computing 
Integral type ranges set in mkLRange.C for JobNum: 21  <1-21|1-21>
         cpu   2.56 wall   0.64
 MakeK time:  CPU       2.73 s  wall       0.73 s
 K construction time:  CPU 2.73 s  wall 0.73 s
Target Grid is being used
 -------------------------------------------------------
 OpenMP BLAS3 based DFT computing Module                
 Release: version 1.0, May 2013, Q-Chem Inc. Pittsburgh 
 -------------------------------------------------------
in dftxc.C, eleTot sum is:75.000175, tauTot is:0.000000
Fock build time:  12.90 s (CPU) 3.57 s (wall)
DIIS Errors:  Max 8.07E-01 RMS 4.61E-02

Current DIIS subspace size = 1
REM_GRID_RESTART_DIIS = 0

 ---------------------------------------
  Cycle       Energy         DIIS Error
 ---------------------------------------
    1    -654.8258466181      4.61E-02  00000
Ite = 2 IFIte = 1 Thresh = 1.00e-11
 Building regular ol' J (integral screening version)
 Job number = 20, Threshold = 1.00E-11
Integral type ranges set in mkLRange.C for JobNum: 20  <1-21|1-21>
Approximate symmetry reduction factor = 1.000000
         cpu   6.98 wall   1.74
 Building long-range K (w = 2.000e-01)
 Job number = 21, Threshold = 1.00E-11
Integral type ranges set in mkLRange.C for JobNum: 21  <1-21|1-21>
Approximate symmetry reduction factor = 1.000000
         cpu  17.06 wall   4.27
 MakeK time:  CPU      17.39 s  wall       4.35 s
 K construction time:  CPU 17.39 s  wall 4.35 s
 Building short-range K (Use_dP version)
 Job number = 21, Threshold = 1.00E-11
Integral type ranges set in mkLRange.C for JobNum: 21  <1-21|1-21>
Approximate symmetry reduction factor = 1.000000
         cpu  17.64 wall   4.41
 MakeK time:  CPU      17.75 s  wall       4.50 s
 K construction time:  CPU 17.75 s  wall 4.50 s
Target Grid is being used
in dftxc.C, eleTot sum is:74.999934, tauTot is:0.000000
Fock build time:  46.76 s (CPU) 12.02 s (wall)
DIIS Errors:  Max 1.72E-01 RMS 6.45E-03

Current DIIS subspace size = 2
REM_GRID_RESTART_DIIS = 0

    2    -653.5589393597      6.45E-03  00000
Ite = 3 IFIte = 2 Thresh = 1.00e-11
Using dP: JK
 Building regular ol' J (Use_dP version)
 Job number = 20, Threshold = 1.00E-11
Integral type ranges set in mkLRange.C for JobNum: 20  <1-21|1-21>
         cpu   6.74 wall   1.69
 Building long-range K (w = 2.000e-01)
ML is being used
 Job number = 21, Threshold = 1.00E-11
Integral type ranges set in mkLRange.C for JobNum: 21  <1-21|1-21>
         cpu  16.45 wall   4.11
 MakeK time:  CPU      16.78 s  wall       4.20 s
 K construction time:  CPU 16.78 s  wall 4.20 s
 Building short-range K (Use_dP version)
ML is being used
 Job number = 21, Threshold = 1.00E-11
Integral type ranges set in mkLRange.C for JobNum: 21  <1-21|1-21>
         cpu  17.01 wall   4.25
 MakeK time:  CPU      17.34 s  wall       4.34 s
 K construction time:  CPU 17.34 s  wall 4.34 s
Target Grid is being used
in dftxc.C, eleTot sum is:74.999912, tauTot is:0.000000
Fock build time:  45.65 s (CPU) 11.66 s (wall)
DIIS Errors:  Max 3.39E-01 RMS 1.16E-02

Current DIIS subspace size = 3
REM_GRID_RESTART_DIIS = 0

    3    -653.2708677070      1.16E-02  00000
Ite = 4 IFIte = 3 Thresh = 1.00e-11
Using dP: JK
 Building regular ol' J (Use_dP version)
 Job number = 20, Threshold = 1.00E-11
Integral type ranges set in mkLRange.C for JobNum: 20  <1-21|1-21>
         cpu   6.64 wall   1.66
 Building long-range K (w = 2.000e-01)
ML is being used
 Job number = 21, Threshold = 1.00E-11
Integral type ranges set in mkLRange.C for JobNum: 21  <1-21|1-21>
         cpu  16.11 wall   4.03
 MakeK time:  CPU      16.20 s  wall       4.12 s
 K construction time:  CPU 16.20 s  wall 4.12 s
 Building short-range K (Use_dP version)
ML is being used
 Job number = 21, Threshold = 1.00E-11
Integral type ranges set in mkLRange.C for JobNum: 21  <1-21|1-21>
         cpu  16.65 wall   4.16
 MakeK time:  CPU      16.98 s  wall       4.25 s
 K construction time:  CPU 16.98 s  wall 4.25 s
Target Grid is being used
in dftxc.C, eleTot sum is:74.999904, tauTot is:0.000000
Fock build time:  44.24 s (CPU) 11.45 s (wall)
DIIS Errors:  Max 3.54E-02 RMS 1.14E-03

Current DIIS subspace size = 4
REM_GRID_RESTART_DIIS = 0

    4    -653.7500885148      1.14E-03  00000
Ite = 5 IFIte = 4 Thresh = 1.00e-11
Using dP: JK
 Building regular ol' J (Use_dP version)
 Job number = 20, Threshold = 1.00E-11
Integral type ranges set in mkLRange.C for JobNum: 20  <1-21|1-21>
         cpu   6.34 wall   1.59
 Building long-range K (w = 2.000e-01)
ML is being used
 Job number = 21, Threshold = 1.00E-11
Integral type ranges set in mkLRange.C for JobNum: 21  <1-21|1-21>
         cpu  15.22 wall   3.81
 MakeK time:  CPU      15.60 s  wall       3.91 s
 K construction time:  CPU 15.60 s  wall 3.91 s
 Building short-range K (Use_dP version)
ML is being used
 Job number = 21, Threshold = 1.00E-11
Integral type ranges set in mkLRange.C for JobNum: 21  <1-21|1-21>
         cpu  15.74 wall   3.94
 MakeK time:  CPU      15.91 s  wall       4.03 s
 K construction time:  CPU 15.91 s  wall 4.03 s
Target Grid is being used
in dftxc.C, eleTot sum is:74.999903, tauTot is:0.000000
Fock build time:  41.96 s (CPU) 10.95 s (wall)
DIIS Errors:  Max 2.35E-02 RMS 5.80E-04

Current DIIS subspace size = 5
REM_GRID_RESTART_DIIS = 0

    5    -653.7589085098      5.80E-04  00000
Ite = 6 IFIte = 5 Thresh = 1.00e-11
Using dP: JK
 Building regular ol' J (Use_dP version)
 Job number = 20, Threshold = 1.00E-11
Integral type ranges set in mkLRange.C for JobNum: 20  <1-21|1-21>
         cpu   6.21 wall   1.55
 Building long-range K (w = 2.000e-01)
ML is being used
 Job number = 21, Threshold = 1.00E-11
Integral type ranges set in mkLRange.C for JobNum: 21  <1-21|1-21>
         cpu  14.96 wall   3.74
 MakeK time:  CPU      15.29 s  wall       3.83 s
 K construction time:  CPU 15.29 s  wall 3.83 s
 Building short-range K (Use_dP version)
ML is being used
 Job number = 21, Threshold = 1.00E-11
Integral type ranges set in mkLRange.C for JobNum: 21  <1-21|1-21>
         cpu  15.47 wall   3.87
 MakeK time:  CPU      15.80 s  wall       3.95 s
 K construction time:  CPU 15.80 s  wall 3.95 s
Target Grid is being used
in dftxc.C, eleTot sum is:74.999900, tauTot is:0.000000
Fock build time:  42.10 s (CPU) 10.75 s (wall)
DIIS Errors:  Max 9.70E-03 RMS 2.70E-04

Current DIIS subspace size = 6
REM_GRID_RESTART_DIIS = 0

    6    -653.7636475472      2.70E-04  00000
Ite = 7 IFIte = 6 Thresh = 1.00e-11
Using dP: JK
 Building regular ol' J (Use_dP version)
 Job number = 20, Threshold = 1.00E-11
Integral type ranges set in mkLRange.C for JobNum: 20  <1-21|1-21>
         cpu   6.06 wall   1.52
 Building long-range K (w = 2.000e-01)
ML is being used
 Job number = 21, Threshold = 1.00E-11
Integral type ranges set in mkLRange.C for JobNum: 21  <1-21|1-21>
         cpu  14.66 wall   3.67
 MakeK time:  CPU      14.98 s  wall       3.75 s
 K construction time:  CPU 14.98 s  wall 3.75 s
 Building short-range K (Use_dP version)
ML is being used
 Job number = 21, Threshold = 1.00E-11
Integral type ranges set in mkLRange.C for JobNum: 21  <1-21|1-21>
         cpu  15.18 wall   3.80
 MakeK time:  CPU      15.51 s  wall       3.88 s
 K construction time:  CPU 15.51 s  wall 3.88 s
Target Grid is being used
in dftxc.C, eleTot sum is:74.999899, tauTot is:0.000000
Fock build time:  41.19 s (CPU) 10.57 s (wall)
DIIS Errors:  Max 2.65E-03 RMS 1.04E-04

Current DIIS subspace size = 7
REM_GRID_RESTART_DIIS = 0

    7    -653.7663179545      1.04E-04  00000
Ite = 8 IFIte = 7 Thresh = 1.00e-11
Using dP: JK
 Building regular ol' J (Use_dP version)
 Job number = 20, Threshold = 1.00E-11
Integral type ranges set in mkLRange.C for JobNum: 20  <1-21|1-21>
         cpu   5.99 wall   1.50
 Building long-range K (w = 2.000e-01)
ML is being used
 Job number = 21, Threshold = 1.00E-11
Integral type ranges set in mkLRange.C for JobNum: 21  <1-21|1-21>
         cpu  14.57 wall   3.64
 MakeK time:  CPU      14.91 s  wall       3.73 s
 K construction time:  CPU 14.91 s  wall 3.73 s
 Building short-range K (Use_dP version)
ML is being used
 Job number = 21, Threshold = 1.00E-11
Integral type ranges set in mkLRange.C for JobNum: 21  <1-21|1-21>
         cpu  15.07 wall   3.77
 MakeK time:  CPU      15.39 s  wall       3.85 s
 K construction time:  CPU 15.39 s  wall 3.85 s
Target Grid is being used
in dftxc.C, eleTot sum is:74.999898, tauTot is:0.000000
Fock build time:  40.94 s (CPU) 10.50 s (wall)
DIIS Errors:  Max 9.96E-04 RMS 5.66E-05

Current DIIS subspace size = 8
REM_GRID_RESTART_DIIS = 0

    8    -653.7684893249      5.66E-05  00000
Ite = 9 IFIte = 8 Thresh = 1.00e-11
Using dP: JK
 Building regular ol' J (Use_dP version)
 Job number = 20, Threshold = 1.00E-11
Integral type ranges set in mkLRange.C for JobNum: 20  <1-21|1-21>
         cpu   5.97 wall   1.49
 Building long-range K (w = 2.000e-01)
ML is being used
 Job number = 21, Threshold = 1.00E-11
Integral type ranges set in mkLRange.C for JobNum: 21  <1-21|1-21>
         cpu  14.56 wall   3.64
 MakeK time:  CPU      14.88 s  wall       3.73 s
 K construction time:  CPU 14.88 s  wall 3.73 s
 Building short-range K (Use_dP version)
ML is being used
 Job number = 21, Threshold = 1.00E-11
Integral type ranges set in mkLRange.C for JobNum: 21  <1-21|1-21>
         cpu  15.05 wall   3.76
 MakeK time:  CPU      15.38 s  wall       3.85 s
 K construction time:  CPU 15.38 s  wall 3.85 s
Target Grid is being used
in dftxc.C, eleTot sum is:74.999898, tauTot is:0.000000
Fock build time:  40.97 s (CPU) 10.48 s (wall)
DIIS Errors:  Max 1.54E-03 RMS 6.25E-05

Current DIIS subspace size = 9
REM_GRID_RESTART_DIIS = 0

    9    -653.7704934072      6.25E-05  00000
Ite = 10 IFIte = 9 Thresh = 1.00e-11
Using dP: JK
 Building regular ol' J (Use_dP version)
 Job number = 20, Threshold = 1.00E-11
Integral type ranges set in mkLRange.C for JobNum: 20  <1-21|1-21>
         cpu   5.74 wall   1.43
 Building long-range K (w = 2.000e-01)
ML is being used
 Job number = 21, Threshold = 1.00E-11
Integral type ranges set in mkLRange.C for JobNum: 21  <1-21|1-21>
         cpu  13.77 wall   3.44
 MakeK time:  CPU      14.00 s  wall       3.53 s
 K construction time:  CPU 14.00 s  wall 3.53 s
 Building short-range K (Use_dP version)
ML is being used
 Job number = 21, Threshold = 1.00E-11
Integral type ranges set in mkLRange.C for JobNum: 21  <1-21|1-21>
         cpu  14.27 wall   3.57
 MakeK time:  CPU      14.60 s  wall       3.66 s
 K construction time:  CPU 14.60 s  wall 3.66 s
Target Grid is being used
in dftxc.C, eleTot sum is:74.999898, tauTot is:0.000000
Fock build time:  38.87 s (CPU) 10.06 s (wall)
DIIS Errors:  Max 1.22E-03 RMS 5.27E-05

Current DIIS subspace size = 10
REM_GRID_RESTART_DIIS = 0

   10    -653.7712430252      5.27E-05  00000
Ite = 11 IFIte = 10 Thresh = 1.00e-11
Using dP: JK
 Building regular ol' J (Use_dP version)
 Job number = 20, Threshold = 1.00E-11
Integral type ranges set in mkLRange.C for JobNum: 20  <1-21|1-21>
         cpu   5.72 wall   1.43
 Building long-range K (w = 2.000e-01)
ML is being used
 Job number = 21, Threshold = 1.00E-11
Integral type ranges set in mkLRange.C for JobNum: 21  <1-21|1-21>
         cpu  13.77 wall   3.44
 MakeK time:  CPU      14.09 s  wall       3.53 s
 K construction time:  CPU 14.09 s  wall 3.53 s
 Building short-range K (Use_dP version)
ML is being used
 Job number = 21, Threshold = 1.00E-11
Integral type ranges set in mkLRange.C for JobNum: 21  <1-21|1-21>
         cpu  14.25 wall   3.56
 MakeK time:  CPU      14.58 s  wall       3.65 s
 K construction time:  CPU 14.58 s  wall 3.65 s
Target Grid is being used
in dftxc.C, eleTot sum is:74.999898, tauTot is:0.000000
Fock build time:  39.03 s (CPU) 10.03 s (wall)
DIIS Errors:  Max 1.19E-03 RMS 4.91E-05

Current DIIS subspace size = 11
REM_GRID_RESTART_DIIS = 0

   11    -653.7721113586      4.91E-05  00000
Ite = 12 IFIte = 11 Thresh = 1.00e-11
Using dP: JK
 Building regular ol' J (Use_dP version)
 Job number = 20, Threshold = 1.00E-11
Integral type ranges set in mkLRange.C for JobNum: 20  <1-21|1-21>
         cpu   5.93 wall   1.48
 Building long-range K (w = 2.000e-01)
ML is being used
 Job number = 21, Threshold = 1.00E-11
Integral type ranges set in mkLRange.C for JobNum: 21  <1-21|1-21>
         cpu  14.31 wall   3.58
 MakeK time:  CPU      14.64 s  wall       3.66 s
 K construction time:  CPU 14.64 s  wall 3.66 s
 Building short-range K (Use_dP version)
ML is being used
 Job number = 21, Threshold = 1.00E-11
Integral type ranges set in mkLRange.C for JobNum: 21  <1-21|1-21>
         cpu  14.79 wall   3.70
 MakeK time:  CPU      15.02 s  wall       3.79 s
 K construction time:  CPU 15.02 s  wall 3.79 s
Target Grid is being used
in dftxc.C, eleTot sum is:74.999898, tauTot is:0.000000
Fock build time:  40.06 s (CPU) 10.35 s (wall)
DIIS Errors:  Max 8.28E-04 RMS 3.75E-05

Current DIIS subspace size = 12
REM_GRID_RESTART_DIIS = 0

   12    -653.7734541882      3.75E-05  00000
Ite = 13 IFIte = 12 Thresh = 1.00e-11
Using dP: JK
 Building regular ol' J (Use_dP version)
 Job number = 20, Threshold = 1.00E-11
Integral type ranges set in mkLRange.C for JobNum: 20  <1-21|1-21>
         cpu   5.98 wall   1.50
 Building long-range K (w = 2.000e-01)
ML is being used
 Job number = 21, Threshold = 1.00E-11
Integral type ranges set in mkLRange.C for JobNum: 21  <1-21|1-21>
         cpu  14.45 wall   3.61
 MakeK time:  CPU      14.72 s  wall       3.70 s
 K construction time:  CPU 14.72 s  wall 3.70 s
 Building short-range K (Use_dP version)
ML is being used
 Job number = 21, Threshold = 1.00E-11
Integral type ranges set in mkLRange.C for JobNum: 21  <1-21|1-21>
         cpu  14.93 wall   3.73
 MakeK time:  CPU      15.26 s  wall       3.82 s
 K construction time:  CPU 15.26 s  wall 3.82 s
Target Grid is being used
in dftxc.C, eleTot sum is:74.999898, tauTot is:0.000000
Fock build time:  40.57 s (CPU) 10.44 s (wall)
DIIS Errors:  Max 4.69E-04 RMS 2.06E-05

Current DIIS subspace size = 13
REM_GRID_RESTART_DIIS = 0

   13    -653.7740547324      2.06E-05  00000
Ite = 14 IFIte = 13 Thresh = 1.00e-11
Using dP: JK
 Building regular ol' J (Use_dP version)
 Job number = 20, Threshold = 1.00E-11
Integral type ranges set in mkLRange.C for JobNum: 20  <1-21|1-21>
         cpu   5.56 wall   1.39
 Building long-range K (w = 2.000e-01)
ML is being used
 Job number = 21, Threshold = 1.00E-11
Integral type ranges set in mkLRange.C for JobNum: 21  <1-21|1-21>
         cpu  13.17 wall   3.29
 MakeK time:  CPU      13.39 s  wall       3.38 s
 K construction time:  CPU 13.39 s  wall 3.38 s
 Building short-range K (Use_dP version)
ML is being used
 Job number = 21, Threshold = 1.00E-11
Integral type ranges set in mkLRange.C for JobNum: 21  <1-21|1-21>
         cpu  13.61 wall   3.41
 MakeK time:  CPU      13.88 s  wall       3.49 s
 K construction time:  CPU 13.88 s  wall 3.49 s
Target Grid is being used
in dftxc.C, eleTot sum is:74.999898, tauTot is:0.000000
Fock build time:  37.65 s (CPU) 9.68 s (wall)
DIIS Errors:  Max 4.39E-04 RMS 1.84E-05

Current DIIS subspace size = 14
REM_GRID_RESTART_DIIS = 0

   14    -653.7740668584      1.84E-05  00000
Ite = 15 IFIte = 14 Thresh = 1.00e-11
Using dP: JK
 Building regular ol' J (Use_dP version)
 Job number = 20, Threshold = 1.00E-11
Integral type ranges set in mkLRange.C for JobNum: 20  <1-21|1-21>
         cpu   5.53 wall   1.38
 Building long-range K (w = 2.000e-01)
ML is being used
 Job number = 21, Threshold = 1.00E-11
Integral type ranges set in mkLRange.C for JobNum: 21  <1-21|1-21>
         cpu  13.13 wall   3.28
 MakeK time:  CPU      13.46 s  wall       3.37 s
 K construction time:  CPU 13.46 s  wall 3.37 s
 Building short-range K (Use_dP version)
ML is being used
 Job number = 21, Threshold = 1.00E-11
Integral type ranges set in mkLRange.C for JobNum: 21  <1-21|1-21>
         cpu  13.56 wall   3.39
 MakeK time:  CPU      13.89 s  wall       3.48 s
 K construction time:  CPU 13.89 s  wall 3.48 s
Target Grid is being used
in dftxc.C, eleTot sum is:74.999898, tauTot is:0.000000
Fock build time:  37.31 s (CPU) 9.65 s (wall)
DIIS Errors:  Max 4.25E-04 RMS 1.80E-05

Current DIIS subspace size = 15
REM_GRID_RESTART_DIIS = 0

   15    -653.7740169348      1.80E-05  00000
Ite = 16 IFIte = 0 Thresh = 1.00e-11
 Building regular ol' J (integral screening version)
 Job number = 20, Threshold = 1.00E-11
Integral type ranges set in mkLRange.C for JobNum: 20  <1-21|1-21>
Approximate symmetry reduction factor = 1.000000
         cpu   6.94 wall   1.74
 Building long-range K (w = 2.000e-01)
 Job number = 21, Threshold = 1.00E-11
Integral type ranges set in mkLRange.C for JobNum: 21  <1-21|1-21>
Approximate symmetry reduction factor = 1.000000
         cpu  16.99 wall   4.25
 MakeK time:  CPU      17.32 s  wall       4.33 s
 K construction time:  CPU 17.32 s  wall 4.33 s
 Building short-range K (Use_dP version)
 Job number = 21, Threshold = 1.00E-11
Integral type ranges set in mkLRange.C for JobNum: 21  <1-21|1-21>
Approximate symmetry reduction factor = 1.000000
         cpu  17.56 wall   4.39
 MakeK time:  CPU      17.78 s  wall       4.48 s
 K construction time:  CPU 17.78 s  wall 4.48 s
Target Grid is being used
in dftxc.C, eleTot sum is:74.999898, tauTot is:0.000000
Fock build time:  46.67 s (CPU) 11.99 s (wall)
DIIS Errors:  Max 3.59E-04 RMS 1.31E-05

Current DIIS subspace size = 15
REM_GRID_RESTART_DIIS = 0

   16    -653.7740888511      1.31E-05  00000
Ite = 17 IFIte = 1 Thresh = 1.00e-11
Using dP: JK
 Building regular ol' J (Use_dP version)
 Job number = 20, Threshold = 1.00E-11
Integral type ranges set in mkLRange.C for JobNum: 20  <1-21|1-21>
         cpu   5.47 wall   1.37
 Building long-range K (w = 2.000e-01)
ML is being used
 Job number = 21, Threshold = 1.00E-11
Integral type ranges set in mkLRange.C for JobNum: 21  <1-21|1-21>
         cpu  12.87 wall   3.22
 MakeK time:  CPU      13.19 s  wall       3.31 s
 K construction time:  CPU 13.19 s  wall 3.31 s
 Building short-range K (Use_dP version)
ML is being used
 Job number = 21, Threshold = 1.00E-11
Integral type ranges set in mkLRange.C for JobNum: 21  <1-21|1-21>
         cpu  13.32 wall   3.33
 MakeK time:  CPU      13.65 s  wall       3.42 s
 K construction time:  CPU 13.65 s  wall 3.42 s
Target Grid is being used
in dftxc.C, eleTot sum is:74.999898, tauTot is:0.000000
Fock build time:  37.12 s (CPU) 9.51 s (wall)
DIIS Errors:  Max 4.95E-05 RMS 1.39E-06

Current DIIS subspace size = 15
REM_GRID_RESTART_DIIS = 0

   17    -653.7741015944      1.39E-06  00000
Ite = 18 IFIte = 2 Thresh = 1.00e-11
Using dP: JK
 Building regular ol' J (Use_dP version)
 Job number = 20, Threshold = 1.00E-11
Integral type ranges set in mkLRange.C for JobNum: 20  <1-21|1-21>
         cpu   4.86 wall   1.22
 Building long-range K (w = 2.000e-01)
ML is being used
 Job number = 21, Threshold = 1.00E-11
Integral type ranges set in mkLRange.C for JobNum: 21  <1-21|1-21>
         cpu  11.15 wall   2.79
 MakeK time:  CPU      11.37 s  wall       2.89 s
 K construction time:  CPU 11.37 s  wall 2.89 s
 Building short-range K (Use_dP version)
ML is being used
 Job number = 21, Threshold = 1.00E-11
Integral type ranges set in mkLRange.C for JobNum: 21  <1-21|1-21>
         cpu  11.50 wall   2.88
 MakeK time:  CPU      11.83 s  wall       2.96 s
 K construction time:  CPU 11.83 s  wall 2.96 s
Target Grid is being used
in dftxc.C, eleTot sum is:74.999898, tauTot is:0.000000
Fock build time:  32.75 s (CPU) 8.48 s (wall)
DIIS Errors:  Max 4.03E-05 RMS 1.39E-06

Current DIIS subspace size = 15
REM_GRID_RESTART_DIIS = 0

   18    -653.7741017556      1.39E-06  00000
Ite = 19 IFIte = 3 Thresh = 1.00e-11
Using dP: JK
 Building regular ol' J (Use_dP version)
 Job number = 20, Threshold = 1.00E-11
Integral type ranges set in mkLRange.C for JobNum: 20  <1-21|1-21>
         cpu   4.80 wall   1.20
 Building long-range K (w = 2.000e-01)
ML is being used
 Job number = 21, Threshold = 1.00E-11
Integral type ranges set in mkLRange.C for JobNum: 21  <1-21|1-21>
         cpu  11.04 wall   2.76
 MakeK time:  CPU      11.37 s  wall       2.85 s
 K construction time:  CPU 11.37 s  wall 2.85 s
 Building short-range K (Use_dP version)
ML is being used
 Job number = 21, Threshold = 1.00E-11
Integral type ranges set in mkLRange.C for JobNum: 21  <1-21|1-21>
         cpu  11.40 wall   2.85
 MakeK time:  CPU      11.61 s  wall       2.94 s
 K construction time:  CPU 11.61 s  wall 2.94 s
Target Grid is being used
in dftxc.C, eleTot sum is:74.999898, tauTot is:0.000000
Fock build time:  32.39 s (CPU) 8.40 s (wall)
DIIS Errors:  Max 1.75E-05 RMS 6.07E-07

Current DIIS subspace size = 15
REM_GRID_RESTART_DIIS = 0

   19    -653.7741020189      6.07E-07  00000
Ite = 20 IFIte = 4 Thresh = 1.00e-11
Using dP: JK
 Building regular ol' J (Use_dP version)
 Job number = 20, Threshold = 1.00E-11
Integral type ranges set in mkLRange.C for JobNum: 20  <1-21|1-21>
         cpu   4.54 wall   1.14
 Building long-range K (w = 2.000e-01)
ML is being used
 Job number = 21, Threshold = 1.00E-11
Integral type ranges set in mkLRange.C for JobNum: 21  <1-21|1-21>
         cpu  10.26 wall   2.57
 MakeK time:  CPU      10.54 s  wall       2.65 s
 K construction time:  CPU 10.54 s  wall 2.65 s
 Building short-range K (Use_dP version)
ML is being used
 Job number = 21, Threshold = 1.00E-11
Integral type ranges set in mkLRange.C for JobNum: 21  <1-21|1-21>
         cpu  10.61 wall   2.65
 MakeK time:  CPU      10.72 s  wall       2.74 s
 K construction time:  CPU 10.72 s  wall 2.74 s
Target Grid is being used
in dftxc.C, eleTot sum is:74.999898, tauTot is:0.000000
Fock build time:  30.31 s (CPU) 7.95 s (wall)
DIIS Errors:  Max 4.20E-06 RMS 1.44E-07

Current DIIS subspace size = 15
REM_GRID_RESTART_DIIS = 0

   20    -653.7741020616      1.44E-07  00000
Ite = 21 IFIte = 5 Thresh = 1.00e-11
Using dP: JK
 Building regular ol' J (Use_dP version)
 Job number = 20, Threshold = 1.00E-11
Integral type ranges set in mkLRange.C for JobNum: 20  <1-21|1-21>
         cpu   4.24 wall   1.06
 Building long-range K (w = 2.000e-01)
ML is being used
 Job number = 21, Threshold = 1.00E-11
Integral type ranges set in mkLRange.C for JobNum: 21  <1-21|1-21>
         cpu   9.22 wall   2.31
 MakeK time:  CPU       9.55 s  wall       2.39 s
 K construction time:  CPU 9.55 s  wall 2.39 s
 Building short-range K (Use_dP version)
ML is being used
 Job number = 21, Threshold = 1.00E-11
Integral type ranges set in mkLRange.C for JobNum: 21  <1-21|1-21>
         cpu   9.53 wall   2.38
 MakeK time:  CPU       9.86 s  wall       2.47 s
 K construction time:  CPU 9.86 s  wall 2.47 s
Target Grid is being used
in dftxc.C, eleTot sum is:74.999898, tauTot is:0.000000
Fock build time:  27.98 s (CPU) 7.34 s (wall)
DIIS Errors:  Max 2.97E-06 RMS 1.09E-07

Current DIIS subspace size = 15
REM_GRID_RESTART_DIIS = 0

   21    -653.7741020646      1.09E-07  00000
Ite = 22 IFIte = 6 Thresh = 1.00e-11
Using dP: JK
 Building regular ol' J (Use_dP version)
 Job number = 20, Threshold = 1.00E-11
Integral type ranges set in mkLRange.C for JobNum: 20  <1-21|1-21>
         cpu   4.19 wall   1.05
 Building long-range K (w = 2.000e-01)
ML is being used
 Job number = 21, Threshold = 1.00E-11
Integral type ranges set in mkLRange.C for JobNum: 21  <1-21|1-21>
         cpu   9.25 wall   2.31
 MakeK time:  CPU       9.58 s  wall       2.40 s
 K construction time:  CPU 9.58 s  wall 2.40 s
 Building short-range K (Use_dP version)
ML is being used
 Job number = 21, Threshold = 1.00E-11
Integral type ranges set in mkLRange.C for JobNum: 21  <1-21|1-21>
         cpu   9.55 wall   2.39
 MakeK time:  CPU       9.88 s  wall       2.47 s
 K construction time:  CPU 9.88 s  wall 2.47 s
Target Grid is being used
in dftxc.C, eleTot sum is:74.999898, tauTot is:0.000000
Fock build time:  27.82 s (CPU) 7.34 s (wall)
DIIS Errors:  Max 9.63E-07 RMS 4.13E-08

Current DIIS subspace size = 15
REM_GRID_RESTART_DIIS = 0

   22    -653.7741020678      4.13E-08  00000
Ite = 23 IFIte = 7 Thresh = 1.00e-11
Using dP: JK
 Building regular ol' J (Use_dP version)
 Job number = 20, Threshold = 1.00E-11
Integral type ranges set in mkLRange.C for JobNum: 20  <1-21|1-21>
         cpu   4.07 wall   1.02
 Building long-range K (w = 2.000e-01)
ML is being used
 Job number = 21, Threshold = 1.00E-11
Integral type ranges set in mkLRange.C for JobNum: 21  <1-21|1-21>
         cpu   8.86 wall   2.21
 MakeK time:  CPU       9.15 s  wall       2.30 s
 K construction time:  CPU 9.15 s  wall 2.30 s
 Building short-range K (Use_dP version)
ML is being used
 Job number = 21, Threshold = 1.00E-11
Integral type ranges set in mkLRange.C for JobNum: 21  <1-21|1-21>
         cpu   9.15 wall   2.29
 MakeK time:  CPU       9.47 s  wall       2.37 s
 K construction time:  CPU 9.47 s  wall 2.37 s
Target Grid is being used
in dftxc.C, eleTot sum is:74.999898, tauTot is:0.000000
Fock build time:  27.05 s (CPU) 7.13 s (wall)
DIIS Errors:  Max 1.14E-06 RMS 4.50E-08

Current DIIS subspace size = 15
REM_GRID_RESTART_DIIS = 0

   23    -653.7741020679      4.50E-08  00000
Ite = 24 IFIte = 8 Thresh = 1.00e-11
Using dP: JK
 Building regular ol' J (Use_dP version)
 Job number = 20, Threshold = 1.00E-11
Integral type ranges set in mkLRange.C for JobNum: 20  <1-21|1-21>
         cpu   3.94 wall   0.98
 Building long-range K (w = 2.000e-01)
ML is being used
 Job number = 21, Threshold = 1.00E-11
Integral type ranges set in mkLRange.C for JobNum: 21  <1-21|1-21>
         cpu   8.50 wall   2.13
 MakeK time:  CPU       8.83 s  wall       2.21 s
 K construction time:  CPU 8.83 s  wall 2.21 s
 Building short-range K (Use_dP version)
ML is being used
 Job number = 21, Threshold = 1.00E-11
Integral type ranges set in mkLRange.C for JobNum: 21  <1-21|1-21>
         cpu   8.77 wall   2.19
 MakeK time:  CPU       9.10 s  wall       2.28 s
 K construction time:  CPU 9.10 s  wall 2.28 s
Target Grid is being used
in dftxc.C, eleTot sum is:74.999898, tauTot is:0.000000
Fock build time:  26.23 s (CPU) 6.89 s (wall)
DIIS Errors:  Max 2.90E-07 RMS 1.36E-08

Current DIIS subspace size = 15
REM_GRID_RESTART_DIIS = 0

   24    -653.7741020682      1.36E-08  00000
Ite = 25 IFIte = 9 Thresh = 1.00e-11
Using dP: JK
 Building regular ol' J (Use_dP version)
 Job number = 20, Threshold = 1.00E-11
Integral type ranges set in mkLRange.C for JobNum: 20  <1-21|1-21>
         cpu   3.58 wall   0.89
 Building long-range K (w = 2.000e-01)
ML is being used
 Job number = 21, Threshold = 1.00E-11
Integral type ranges set in mkLRange.C for JobNum: 21  <1-21|1-21>
         cpu   7.41 wall   1.85
 MakeK time:  CPU       7.56 s  wall       1.94 s
 K construction time:  CPU 7.56 s  wall 1.94 s
 Building short-range K (Use_dP version)
ML is being used
 Job number = 21, Threshold = 1.00E-11
Integral type ranges set in mkLRange.C for JobNum: 21  <1-21|1-21>
         cpu   7.65 wall   1.91
 MakeK time:  CPU       7.97 s  wall       2.00 s
 K construction time:  CPU 7.97 s  wall 2.00 s
Target Grid is being used
in dftxc.C, eleTot sum is:74.999898, tauTot is:0.000000
Fock build time:  23.64 s (CPU) 6.25 s (wall)
DIIS Errors:  Max 6.00E-08 RMS 2.62E-09
 Singularity in Pulay DIIS matrix

Current DIIS subspace size = 15
REM_GRID_RESTART_DIIS = 0

NextCycle: DoReset = 1
   25    -653.7741020684      2.62E-09  00000 Convergence criterion met
 ---------------------------------------
 <S^2> = 1.3944
 SCF time:  CPU 908.96 s  wall 236.75 s
 SCF   energy in the final basis set = -653.7741020684
 Total energy in the final basis set = -653.7741020684
Symmetry turned off temporarily
 Analysis of SCF Wavefunction
 
 --------------------------------------------------------------
                    Orbital Energies (a.u.)
 --------------------------------------------------------------
 
 Alpha MOs
 -- Occupied --
-66.296 -19.325 -14.453 -10.428 -10.384 -10.364 -10.337 -10.324
-10.322  -5.413  -3.757  -3.757  -3.757  -1.174  -1.009  -0.921
 -0.839  -0.808  -0.731  -0.664  -0.614  -0.580  -0.549  -0.546
 -0.531  -0.512  -0.496  -0.492  -0.483  -0.458  -0.452  -0.448
 -0.440  -0.436  -0.430  -0.407  -0.337  -0.332
 -- Virtual --
 -0.028   0.043   0.091   0.114   0.119   0.132   0.149   0.164
  0.198   0.200   0.219   0.220   0.227   0.244   0.255   0.263
  0.282   0.291   0.297   0.309   0.324   0.343   0.346   0.421
  0.432   0.559   0.570   0.580   0.589   0.604   0.622   0.632
  0.646   0.687   0.700   0.712   0.721   0.730   0.743   0.764
  0.769   0.778   0.792   0.807   0.833   0.857   0.862   0.887
  0.917   0.923   0.931   0.943   0.948   0.952   0.965   0.975
  1.004   1.011   1.024   1.041   1.061   1.100   1.119   1.135
  1.172   1.237   1.255   1.314   1.342   1.364   1.370   1.458
  1.494   1.519   1.578   1.583   1.620   1.632   1.647   1.687
  1.693   1.741   1.756   1.790   1.876   1.886   1.898   1.944
  1.985   2.021   2.027   2.050   2.055   2.059   2.071   2.086
  2.094   2.100   2.112   2.136   2.159   2.166   2.173   2.179
  2.215   2.226   2.281   2.297   2.319   2.348   2.361   2.371
  2.483   2.497   2.513   2.563   2.581   2.590   2.625   2.651
  2.689   2.745   2.790   2.834   2.837   2.849   2.869   2.878
  2.889   2.901   2.920   2.958   2.976   3.013   3.139   3.185
  3.246   3.356   3.361   3.458   3.473   3.506   3.519   3.847
  4.115   4.158   4.257   4.403   4.525   4.584   4.794
 
 Beta MOs
 -- Occupied --
-66.296 -19.330 -14.450 -10.435 -10.373 -10.358 -10.338 -10.324
-10.322  -5.413  -3.758  -3.758  -3.757  -1.185  -1.002  -0.905
 -0.822  -0.805  -0.719  -0.669  -0.618  -0.566  -0.559  -0.534
 -0.526  -0.520  -0.506  -0.491  -0.480  -0.451  -0.449  -0.439
 -0.438  -0.435  -0.416  -0.403  -0.317
 -- Virtual --
 -0.062  -0.027   0.038   0.093   0.116   0.120   0.146   0.160
  0.169   0.201   0.202   0.222   0.224   0.235   0.246   0.256
  0.272   0.287   0.298   0.302   0.310   0.337   0.343   0.348
  0.423   0.433   0.567   0.576   0.580   0.601   0.607   0.626
  0.633   0.646   0.685   0.705   0.713   0.725   0.732   0.748
  0.768   0.770   0.779   0.797   0.810   0.833   0.861   0.875
  0.893   0.916   0.925   0.935   0.944   0.951   0.955   0.969
  0.977   1.006   1.013   1.030   1.045   1.064   1.102   1.125
  1.129   1.179   1.241   1.256   1.326   1.347   1.371   1.380
  1.467   1.491   1.527   1.568   1.583   1.623   1.636   1.647
  1.690   1.699   1.744   1.762   1.792   1.882   1.898   1.908
  1.965   1.997   2.017   2.032   2.060   2.063   2.081   2.087
  2.089   2.104   2.114   2.120   2.139   2.161   2.170   2.177
  2.181   2.214   2.230   2.280   2.300   2.322   2.336   2.372
  2.377   2.490   2.506   2.517   2.562   2.592   2.606   2.623
  2.653   2.686   2.747   2.794   2.838   2.839   2.843   2.874
  2.881   2.890   2.906   2.927   2.962   2.982   3.006   3.139
  3.187   3.250   3.362   3.367   3.459   3.474   3.507   3.521
  3.839   4.107   4.166   4.275   4.420   4.526   4.584   4.819
 --------------------------------------------------------------
 
          Ground-State Mulliken Net Atomic Charges

     Atom                 Charge (a.u.)    Spin (a.u.)
  --------------------------------------------------------
      1 C                     0.286425      -0.471634
      2 C                    -0.353019       0.758668
      3 C                     0.004614       0.855043
      4 C                    -0.388130      -0.040973
      5 H                     0.140509       0.003784
      6 H                     0.150930       0.004606
      7 H                     0.158089       0.043663
      8 C                     0.308723      -0.135050
      9 C                    -0.391155      -0.040909
     10 H                     0.156726       0.043140
     11 H                     0.159394       0.003947
     12 H                     0.140018       0.003997
     13 N                    -0.449967       0.185992
     14 O                    -0.313153      -0.192474
     15 Si                    0.456762      -0.035633
     16 H                    -0.088584       0.044491
     17 H                    -0.088641       0.006678
     18 H                    -0.080071       0.002544
     19 H                     0.190529      -0.039879
  --------------------------------------------------------
  Sum of atomic charges =    -0.000000
  Sum of spin   charges =     1.000000

 -----------------------------------------------------------------
                    Cartesian Multipole Moments
 -----------------------------------------------------------------
    Charge (ESU x 10^10)
                 0.0000
    Dipole Moment (Debye)
         X      -2.8426      Y       1.0853      Z       3.9805
       Tot       5.0102
    Quadrupole Moments (Debye-Ang)
        XX     -68.7253     XY      -1.2555     YY     -64.7972
        XZ       9.2975     YZ      -1.3269     ZZ     -64.9688
    Octopole Moments (Debye-Ang^2)
       XXX     -36.5702    XXY     -16.8127    XYY       6.9097
       YYY       3.1750    XXZ      43.6378    XYZ      10.1898
       YYZ       5.9872    XZZ     -13.7784    YZZ      -7.8258
       ZZZ      11.5428
    Hexadecapole Moments (Debye-Ang^3)
      XXXX   -2592.2217   XXXY       0.8353   XXYY    -482.0944
      XYYY      11.5251   YYYY    -601.2109   XXXZ     133.3214
      XXYZ       8.6630   XYYZ       1.6248   YYYZ      -6.7379
      XXZZ    -510.8153   XYZZ       0.5404   YYZZ    -154.1503
      XZZZ      36.3277   YZZZ       7.5163   ZZZZ    -360.1781
 -----------------------------------------------------------------
 Calculating analytic gradient of the SCF energy
 Job number = 111, Threshold = 1.00E-11
Integral type ranges set in mkLRange.C for JobNum: 11  <1-21|22-22>
Construct unmodified Jx
 Job number = 120, Threshold = 1.00E-11
Integral type ranges set in mkLRange.C for JobNum: 20  <1-21|1-21>
         cpu   9.82 wall   2.46
Construct long-range Kx
ML is being used
 Job number = 121, Threshold = 1.00E-11
Integral type ranges set in mkLRange.C for JobNum: 21  <1-21|1-21>
         cpu  82.09 wall  20.53
 MakeK time:  CPU      82.90 s  wall      20.87 s
 K construction time:  CPU 82.90 s  wall 20.87 s
Construct short-range Kx
ML is being used
 Job number = 121, Threshold = 1.00E-11
Integral type ranges set in mkLRange.C for JobNum: 21  <1-21|1-21>
         cpu  82.43 wall  20.61
 MakeK time:  CPU      83.05 s  wall      20.98 s
 K construction time:  CPU 83.05 s  wall 20.98 s
in dftxc.C, eleTot sum is:74.999898, tauTot is:0.000000
 Gradient of SCF Energy
            1           2           3           4           5           6
    1   0.0707915  -0.0307989  -0.0641184   0.0242478  -0.0065307  -0.0023131
    2   0.0691587  -0.0265381  -0.0296740  -0.0006200   0.0010288   0.0039728
    3   0.0200706  -0.0050149  -0.0152011   0.0097419   0.0070935  -0.0118369
            7           8           9          10          11          12
    1   0.0048422   0.0325070   0.0138647   0.0120614   0.0043364  -0.0040389
    2   0.0098800   0.0131483   0.0246503  -0.0012965  -0.0116526  -0.0063594
    3   0.0005918  -0.0106280   0.0064734   0.0041511  -0.0069532   0.0077369
           13          14          15          16          17          18
    1  -0.0068322  -0.0304608   0.0028515  -0.0074556   0.0042361  -0.0077502
    2  -0.0013517  -0.0551056   0.0077925  -0.0029716   0.0061899   0.0004460
    3   0.0089462  -0.0179187  -0.0052540  -0.0023271   0.0010044   0.0037396
           19
    1  -0.0094398
    2  -0.0006979
    3   0.0055846
 Max gradient component =       7.079E-02
 RMS gradient           =       2.122E-02
 Gradient time:  CPU 189.64 s  wall 50.81 s
 ------------------------------------------------------------------------------
                     drvman        : Timing summary (seconds)
 ------------------------------------------------------------------------------
     job step          cpu (% of tot)      sys (% of tot)     wall (% of tot)
 ------------------------------------------------------------------------------
 ------------------------------------------------------------------------------
   Grand Totals     0.1896E+03          0.4700E-04          0.5081E+02
 ------------------------------------------------------------------------------
 Geometry Optimization Parameters
   NAtoms,    NIC,     NZ,  NCons,   NDum,   NFix, NCnnct, MaxDiis
       19     124       0       1       0       0       0       0


** CONSTRAINED OPTIMIZATION IN DELOCALIZED INTERNAL COORDINATES **
   Searching for a Minimum

   Optimization Cycle:   1

                       Coordinates (Angstroms)
     ATOM                X               Y               Z
      1  C        -0.9433033797   -1.1835370286   -0.0714487954
      2  C        -2.3873816391   -0.7313314013    0.1743018541
      3  C         1.7096355670    0.1365248016    0.3017332420
      4  C         1.3685074061    1.5589753779    0.7801466875
      5  H         0.6599990486    1.5617456558    1.6324873087
      6  H         0.9070002039    2.1100833069   -0.0714020435
      7  H         2.2740217892    2.1386975839    1.0586437425
      8  C         2.6401489662    0.3098208670   -0.8308957493
      9  C         2.4934632284   -0.7088018209    1.3411634001
     10  H         3.4389968322   -0.2185376304    1.6640510613
     11  H         2.8005922443   -1.6757597155    0.8717252566
     12  H         1.8921512769   -0.9673397655    2.2366599180
     13  N         3.4179526735    0.4778017338   -1.6715066665
     14  O        -0.7966534809   -2.3256364287   -0.4817143190
     15  Si       -3.2295900363    0.9385404946   -0.1671015434
     16  H        -3.0599114379    1.9092836952    0.9333760496
     17  H        -4.6817443279    0.6888812082   -0.1254419491
     18  H        -2.9738092486    1.5742912751   -1.4662531218
     19  H        -2.8818976330   -1.2903380190    0.9898327682
   Point Group: c1    Number of degrees of freedom:    51


   Energy is   -653.774102068

              Constraints and their Current Values
                                        Value     Constraint
   Distance(Angs):        1   3             2.986622     3.000000

 Attempting to Generate Delocalized Internal Coordinates
 GETINT wrote B to file, NVib is           51
 GETINT wrote B to file, NVib is           51
 calling HSSCONV
 HCONV 3*NATOMS:           57
 wrote HINT to file
  writing hessian 

   Using Lagrange Multiplier Algorithm


 52 Hessian modes will be used to form the next step
  Hessian Eigenvalues:
    -0.990891    0.045000    0.045000    0.045000    0.045000    0.045000
     0.045012    0.047138    0.079740    0.080605    0.084204    0.084541
     0.085060    0.087638    0.097471    0.099290    0.102168    0.154672
     0.160000    0.160000    0.160000    0.160000    0.160000    0.160000
     0.160000    0.160000    0.160000    0.179047    0.180566    0.183114
     0.188047    0.195315    0.195463    0.200000    0.200000    0.222927
     0.249960    0.250000    0.274635    0.286050    0.291435    0.317774
     0.321406    0.322901    0.325289    0.326845    0.327736    0.330814
     0.350253    0.943361    1.009192    1.294390

 Minimum Search - Taking P-RFO Step
 Searching for Lamda that Maximizes Along the Constraint modes Only
 Value Taken    Lamda =   0.00055989
 Searching for Lamda that Minimizes Along All other modes
 Value Taken    Lamda =  -0.04584397
 Calculated Step too Large.  Step scaled by  0.693607
 Step Taken.  Stepsize is  0.300000

                             Maximum     Tolerance    Cnvgd?
         Gradient            0.049522       0.000300      NO
         Displacement        0.125942       0.001200      NO
         Energy change     *********       0.000001      NO


 New Cartesian Coordinates Obtained by Inverse Iteration

 Displacement from previous Coordinates is:  1.173472
 ----------------------------------------------------------------
             Standard Nuclear Orientation (Angstroms)
    I     Atom           X                Y                Z
 ----------------------------------------------------------------
    1      C      -0.9510857709    -1.2511159907    -0.0811719267
    2      C      -2.3242029874    -0.7443601656     0.1923331703
    3      C       1.6688201464     0.1504243315     0.3014040613
    4      C       1.2412949289     1.5388513029     0.7732438799
    5      H       0.5354833502     1.4907489735     1.6141467376
    6      H       0.7584195043     2.0805371748    -0.0566320187
    7      H       2.1182536913     2.1374827313     1.0664037455
    8      C       2.5510057816     0.3254212224    -0.8468868303
    9      C       2.4266323829    -0.6967850116     1.3279961693
   10      H       3.3409259009    -0.1806593133     1.6631130923
   11      H       2.7526225342    -1.6472897640     0.8716946049
   12      H       1.8077001124    -0.9525184415     2.1999361383
   13      N       3.3000913034     0.4978515793    -1.7164414393
   14      O      -0.7025990521    -2.3560605534    -0.4850481681
   15      Si     -3.0538930475     0.9550692922    -0.1433943494
   16      H      -2.7522495440     1.9257104144     0.9387896816
   17      H      -4.5248061837     0.7842166286    -0.0734201083
   18      H      -2.7390192833     1.5266075858    -1.4672841986
   19      H      -2.8052157145    -1.2807678065     1.0195748589
 ----------------------------------------------------------------
 Molecular Point Group                 C1    NOp =  1
 Largest Abelian Subgroup              C1    NOp =  1
 Nuclear Repulsion Energy =   437.7794448847 hartrees
 There are       38 alpha and       37 beta electrons
 JobOver = FALSE
 Applying Cartesian multipole field
    Component          Value
    ---------          -----
     (2,0,0)        1.00000E-11
     (0,2,0)        2.00000E-11
     (0,0,2)       -3.00000E-11
 Nucleus-field energy     =     0.0000000168 hartrees
 Requested basis set is 6-31G(d,p)
 There are 67 shells and 189 basis functions
 Job number = 2, Threshold = 1.00E-11
Integral type ranges set in mkLRange.C for JobNum: 2  <1-21|1-21>
Symmetry turned off temporarily
Total number of integrals generated =          229210
Symmetry turned back on
 A cutoff of  1.0D-11 yielded   1714 shell pairs
 There are     14206 function pairs
 Job number = 11, Threshold = 1.00E-11
Integral type ranges set in mkLRange.C for JobNum: 11  <1-21|22-22>
Total number of integrals generated =          269914
 Smallest overlap matrix eigenvalue = 1.39E-03
 Multipole matrices computed through 2nd order
 Guess MOs from SCF MO coefficient file
Reading MOs from coefficient file
Reading MOs from coefficient file
 Long-range K will be added via erf
 Coulomb attenuation parameter = 0.2 bohr**(-1)
 An unrestricted hybrid HF-DFT SCF calculation will be
 performed using Pulay DIIS extrapolation
 Exchange:     0.2220 Hartree-Fock + 1.0000 wB97X-D + LR-HF
 Correlation:  1.0000 wB97X-D
 Using SG-1 standard quadrature grid
 SCF converges when DIIS error is below 1.0E-08
Geometry optimization detected.  Setting ReadMinima to 0
Setting SaveMinima to 0
Using Integral Screening
 Building regular ol' J (integral screening version)
 Job number = 20, Threshold = 1.00E-11
 using 4 threads for integral computing 
Integral type ranges set in mkLRange.C for JobNum: 20  <1-21|1-21>
         cpu   7.21 wall   1.80
 Building long-range K (w = 2.000e-01)
ML is being used
 Job number = 21, Threshold = 1.00E-11
 using 4 threads for integral computing 
Integral type ranges set in mkLRange.C for JobNum: 21  <1-21|1-21>
         cpu  17.66 wall   4.42
 MakeK time:  CPU      17.99 s  wall       4.50 s
 K construction time:  CPU 17.99 s  wall 4.50 s
 Building short-range K (Use_dP version)
ML is being used
 Job number = 21, Threshold = 1.00E-11
 using 4 threads for integral computing 
Integral type ranges set in mkLRange.C for JobNum: 21  <1-21|1-21>
         cpu  18.25 wall   4.56
 MakeK time:  CPU      18.58 s  wall       4.65 s
 K construction time:  CPU 18.58 s  wall 4.65 s
Target Grid is being used
 -------------------------------------------------------
 OpenMP BLAS3 based DFT computing Module                
 Release: version 1.0, May 2013, Q-Chem Inc. Pittsburgh 
 -------------------------------------------------------
in dftxc.C, eleTot sum is:75.083095, tauTot is:0.000000
Fock build time:  48.29 s (CPU) 12.41 s (wall)
DIIS Errors:  Max 9.61E-02 RMS 2.44E-03

Current DIIS subspace size = 1
REM_GRID_RESTART_DIIS = 0

 ---------------------------------------
  Cycle       Energy         DIIS Error
 ---------------------------------------
    1    -653.8847099056      2.44E-03  00000
Ite = 2 IFIte = 1 Thresh = 1.00e-11
 Building regular ol' J (integral screening version)
 Job number = 20, Threshold = 1.00E-11
Integral type ranges set in mkLRange.C for JobNum: 20  <1-21|1-21>
         cpu   7.21 wall   1.80
 Building long-range K (w = 2.000e-01)
 Job number = 21, Threshold = 1.00E-11
Integral type ranges set in mkLRange.C for JobNum: 21  <1-21|1-21>
         cpu  17.66 wall   4.42
 MakeK time:  CPU      17.99 s  wall       4.50 s
 K construction time:  CPU 17.99 s  wall 4.50 s
 Building short-range K (Use_dP version)
 Job number = 21, Threshold = 1.00E-11
Integral type ranges set in mkLRange.C for JobNum: 21  <1-21|1-21>
         cpu  18.29 wall   4.57
 MakeK time:  CPU      18.41 s  wall       4.66 s
 K construction time:  CPU 18.41 s  wall 4.66 s
Target Grid is being used
in dftxc.C, eleTot sum is:74.999688, tauTot is:0.000000
Fock build time:  48.20 s (CPU) 12.41 s (wall)
DIIS Errors:  Max 1.04E-02 RMS 4.66E-04

Current DIIS subspace size = 2
REM_GRID_RESTART_DIIS = 0

    2    -653.8001596992      4.66E-04  00000
Ite = 3 IFIte = 2 Thresh = 1.00e-11
Using dP: JK
 Building regular ol' J (Use_dP version)
 Job number = 20, Threshold = 1.00E-11
Integral type ranges set in mkLRange.C for JobNum: 20  <1-21|1-21>
         cpu   6.49 wall   1.62
 Building long-range K (w = 2.000e-01)
ML is being used
 Job number = 21, Threshold = 1.00E-11
Integral type ranges set in mkLRange.C for JobNum: 21  <1-21|1-21>
         cpu  15.46 wall   3.87
 MakeK time:  CPU      15.58 s  wall       3.96 s
 K construction time:  CPU 15.58 s  wall 3.96 s
 Building short-range K (Use_dP version)
ML is being used
 Job number = 21, Threshold = 1.00E-11
Integral type ranges set in mkLRange.C for JobNum: 21  <1-21|1-21>
         cpu  15.98 wall   4.00
 MakeK time:  CPU      16.23 s  wall       4.08 s
 K construction time:  CPU 16.23 s  wall 4.08 s
Target Grid is being used
in dftxc.C, eleTot sum is:74.999684, tauTot is:0.000000
Fock build time:  43.22 s (CPU) 11.10 s (wall)
DIIS Errors:  Max 1.90E-02 RMS 5.33E-04

Current DIIS subspace size = 3
REM_GRID_RESTART_DIIS = 0

    3    -653.8013010545      5.33E-04  00000
Ite = 4 IFIte = 3 Thresh = 1.00e-11
Using dP: JK
 Building regular ol' J (Use_dP version)
 Job number = 20, Threshold = 1.00E-11
Integral type ranges set in mkLRange.C for JobNum: 20  <1-21|1-21>
         cpu   6.26 wall   1.57
 Building long-range K (w = 2.000e-01)
ML is being used
 Job number = 21, Threshold = 1.00E-11
Integral type ranges set in mkLRange.C for JobNum: 21  <1-21|1-21>
         cpu  14.71 wall   3.68
 MakeK time:  CPU      15.04 s  wall       3.76 s
 K construction time:  CPU 15.04 s  wall 3.76 s
 Building short-range K (Use_dP version)
ML is being used
 Job number = 21, Threshold = 1.00E-11
Integral type ranges set in mkLRange.C for JobNum: 21  <1-21|1-21>
         cpu  15.21 wall   3.80
 MakeK time:  CPU      15.54 s  wall       3.89 s
 K construction time:  CPU 15.54 s  wall 3.89 s
Target Grid is being used
in dftxc.C, eleTot sum is:74.999684, tauTot is:0.000000
Fock build time:  41.36 s (CPU) 10.65 s (wall)
DIIS Errors:  Max 4.91E-03 RMS 1.53E-04

Current DIIS subspace size = 4
REM_GRID_RESTART_DIIS = 0

    4    -653.8026698848      1.53E-04  00000
Ite = 5 IFIte = 4 Thresh = 1.00e-11
Using dP: JK
 Building regular ol' J (Use_dP version)
 Job number = 20, Threshold = 1.00E-11
Integral type ranges set in mkLRange.C for JobNum: 20  <1-21|1-21>
         cpu   6.08 wall   1.52
 Building long-range K (w = 2.000e-01)
ML is being used
 Job number = 21, Threshold = 1.00E-11
Integral type ranges set in mkLRange.C for JobNum: 21  <1-21|1-21>
         cpu  14.22 wall   3.56
 MakeK time:  CPU      14.33 s  wall       3.65 s
 K construction time:  CPU 14.33 s  wall 3.65 s
 Building short-range K (Use_dP version)
ML is being used
 Job number = 21, Threshold = 1.00E-11
Integral type ranges set in mkLRange.C for JobNum: 21  <1-21|1-21>
         cpu  14.70 wall   3.67
 MakeK time:  CPU      15.03 s  wall       3.76 s
 K construction time:  CPU 15.03 s  wall 3.76 s
Target Grid is being used
in dftxc.C, eleTot sum is:74.999682, tauTot is:0.000000
Fock build time:  39.64 s (CPU) 10.37 s (wall)
DIIS Errors:  Max 1.44E-03 RMS 5.98E-05

Current DIIS subspace size = 5
REM_GRID_RESTART_DIIS = 0

    5    -653.8030578202      5.98E-05  00000
Ite = 6 IFIte = 5 Thresh = 1.00e-11
Using dP: JK
 Building regular ol' J (Use_dP version)
 Job number = 20, Threshold = 1.00E-11
Integral type ranges set in mkLRange.C for JobNum: 20  <1-21|1-21>
         cpu   6.07 wall   1.52
 Building long-range K (w = 2.000e-01)
ML is being used
 Job number = 21, Threshold = 1.00E-11
Integral type ranges set in mkLRange.C for JobNum: 21  <1-21|1-21>
         cpu  14.38 wall   3.60
 MakeK time:  CPU      14.71 s  wall       3.68 s
 K construction time:  CPU 14.71 s  wall 3.68 s
 Building short-range K (Use_dP version)
ML is being used
 Job number = 21, Threshold = 1.00E-11
Integral type ranges set in mkLRange.C for JobNum: 21  <1-21|1-21>
         cpu  14.87 wall   3.72
 MakeK time:  CPU      15.21 s  wall       3.83 s
 K construction time:  CPU 15.21 s  wall 3.83 s
Target Grid is being used
in dftxc.C, eleTot sum is:74.999680, tauTot is:0.000000
Fock build time:  40.53 s (CPU) 10.46 s (wall)
DIIS Errors:  Max 8.57E-04 RMS 3.97E-05

Current DIIS subspace size = 6
REM_GRID_RESTART_DIIS = 0

    6    -653.8034203976      3.97E-05  00000
Ite = 7 IFIte = 6 Thresh = 1.00e-11
Using dP: JK
 Building regular ol' J (Use_dP version)
 Job number = 20, Threshold = 1.00E-11
Integral type ranges set in mkLRange.C for JobNum: 20  <1-21|1-21>
         cpu   6.03 wall   1.51
 Building long-range K (w = 2.000e-01)
ML is being used
 Job number = 21, Threshold = 1.00E-11
Integral type ranges set in mkLRange.C for JobNum: 21  <1-21|1-21>
         cpu  14.32 wall   3.58
 MakeK time:  CPU      14.50 s  wall       3.67 s
 K construction time:  CPU 14.50 s  wall 3.67 s
 Building short-range K (Use_dP version)
ML is being used
 Job number = 21, Threshold = 1.00E-11
Integral type ranges set in mkLRange.C for JobNum: 21  <1-21|1-21>
         cpu  14.79 wall   3.70
 MakeK time:  CPU      15.12 s  wall       3.79 s
 K construction time:  CPU 15.12 s  wall 3.79 s
Target Grid is being used
in dftxc.C, eleTot sum is:74.999678, tauTot is:0.000000
Fock build time:  40.42 s (CPU) 10.41 s (wall)
DIIS Errors:  Max 4.72E-04 RMS 2.52E-05

Current DIIS subspace size = 7
REM_GRID_RESTART_DIIS = 0

    7    -653.8036943929      2.52E-05  00000
Ite = 8 IFIte = 7 Thresh = 1.00e-11
Using dP: JK
 Building regular ol' J (Use_dP version)
 Job number = 20, Threshold = 1.00E-11
Integral type ranges set in mkLRange.C for JobNum: 20  <1-21|1-21>
         cpu   6.04 wall   1.51
 Building long-range K (w = 2.000e-01)
ML is being used
 Job number = 21, Threshold = 1.00E-11
Integral type ranges set in mkLRange.C for JobNum: 21  <1-21|1-21>
         cpu  14.36 wall   3.59
 MakeK time:  CPU      14.69 s  wall       3.68 s
 K construction time:  CPU 14.69 s  wall 3.68 s
 Building short-range K (Use_dP version)
ML is being used
 Job number = 21, Threshold = 1.00E-11
Integral type ranges set in mkLRange.C for JobNum: 21  <1-21|1-21>
         cpu  14.85 wall   3.71
 MakeK time:  CPU      15.15 s  wall       3.80 s
 K construction time:  CPU 15.15 s  wall 3.80 s
Target Grid is being used
in dftxc.C, eleTot sum is:74.999677, tauTot is:0.000000
Fock build time:  40.47 s (CPU) 10.42 s (wall)
DIIS Errors:  Max 4.39E-04 RMS 1.94E-05

Current DIIS subspace size = 8
REM_GRID_RESTART_DIIS = 0

    8    -653.8038935584      1.94E-05  00000
Ite = 9 IFIte = 8 Thresh = 1.00e-11
Using dP: JK
 Building regular ol' J (Use_dP version)
 Job number = 20, Threshold = 1.00E-11
Integral type ranges set in mkLRange.C for JobNum: 20  <1-21|1-21>
         cpu   5.94 wall   1.49
 Building long-range K (w = 2.000e-01)
ML is being used
 Job number = 21, Threshold = 1.00E-11
Integral type ranges set in mkLRange.C for JobNum: 21  <1-21|1-21>
         cpu  14.09 wall   3.53
 MakeK time:  CPU      14.38 s  wall       3.61 s
 K construction time:  CPU 14.38 s  wall 3.61 s
 Building short-range K (Use_dP version)
ML is being used
 Job number = 21, Threshold = 1.00E-11
Integral type ranges set in mkLRange.C for JobNum: 21  <1-21|1-21>
         cpu  14.57 wall   3.64
 MakeK time:  CPU      14.83 s  wall       3.73 s
 K construction time:  CPU 14.83 s  wall 3.73 s
Target Grid is being used
in dftxc.C, eleTot sum is:74.999675, tauTot is:0.000000
Fock build time:  39.80 s (CPU) 10.27 s (wall)
DIIS Errors:  Max 3.61E-04 RMS 1.11E-05

Current DIIS subspace size = 9
REM_GRID_RESTART_DIIS = 0

    9    -653.8039798584      1.11E-05  00000
Ite = 10 IFIte = 9 Thresh = 1.00e-11
Using dP: JK
 Building regular ol' J (Use_dP version)
 Job number = 20, Threshold = 1.00E-11
Integral type ranges set in mkLRange.C for JobNum: 20  <1-21|1-21>
         cpu   5.71 wall   1.43
 Building long-range K (w = 2.000e-01)
ML is being used
 Job number = 21, Threshold = 1.00E-11
Integral type ranges set in mkLRange.C for JobNum: 21  <1-21|1-21>
         cpu  13.41 wall   3.35
 MakeK time:  CPU      13.74 s  wall       3.44 s
 K construction time:  CPU 13.74 s  wall 3.44 s
 Building short-range K (Use_dP version)
ML is being used
 Job number = 21, Threshold = 1.00E-11
Integral type ranges set in mkLRange.C for JobNum: 21  <1-21|1-21>
         cpu  13.85 wall   3.46
 MakeK time:  CPU      14.18 s  wall       3.55 s
 K construction time:  CPU 14.18 s  wall 3.55 s
Target Grid is being used
in dftxc.C, eleTot sum is:74.999675, tauTot is:0.000000
Fock build time:  38.39 s (CPU) 9.85 s (wall)
DIIS Errors:  Max 1.82E-04 RMS 5.06E-06

Current DIIS subspace size = 10
REM_GRID_RESTART_DIIS = 0

   10    -653.8040028866      5.06E-06  00000
Ite = 11 IFIte = 10 Thresh = 1.00e-11
Using dP: JK
 Building regular ol' J (Use_dP version)
 Job number = 20, Threshold = 1.00E-11
Integral type ranges set in mkLRange.C for JobNum: 20  <1-21|1-21>
         cpu   5.52 wall   1.38
 Building long-range K (w = 2.000e-01)
ML is being used
 Job number = 21, Threshold = 1.00E-11
Integral type ranges set in mkLRange.C for JobNum: 21  <1-21|1-21>
         cpu  12.83 wall   3.21
 MakeK time:  CPU      13.00 s  wall       3.30 s
 K construction time:  CPU 13.00 s  wall 3.30 s
 Building short-range K (Use_dP version)
ML is being used
 Job number = 21, Threshold = 1.00E-11
Integral type ranges set in mkLRange.C for JobNum: 21  <1-21|1-21>
         cpu  13.26 wall   3.32
 MakeK time:  CPU      13.58 s  wall       3.40 s
 K construction time:  CPU 13.58 s  wall 3.40 s
Target Grid is being used
in dftxc.C, eleTot sum is:74.999675, tauTot is:0.000000
Fock build time:  36.88 s (CPU) 9.54 s (wall)
DIIS Errors:  Max 6.92E-05 RMS 3.19E-06

Current DIIS subspace size = 11
REM_GRID_RESTART_DIIS = 0

   11    -653.8040116271      3.19E-06  00000
Ite = 12 IFIte = 11 Thresh = 1.00e-11
Using dP: JK
 Building regular ol' J (Use_dP version)
 Job number = 20, Threshold = 1.00E-11
Integral type ranges set in mkLRange.C for JobNum: 20  <1-21|1-21>
         cpu   5.45 wall   1.36
 Building long-range K (w = 2.000e-01)
ML is being used
 Job number = 21, Threshold = 1.00E-11
Integral type ranges set in mkLRange.C for JobNum: 21  <1-21|1-21>
         cpu  12.71 wall   3.18
 MakeK time:  CPU      12.94 s  wall       3.27 s
 K construction time:  CPU 12.94 s  wall 3.27 s
 Building short-range K (Use_dP version)
ML is being used
 Job number = 21, Threshold = 1.00E-11
Integral type ranges set in mkLRange.C for JobNum: 21  <1-21|1-21>
         cpu  13.11 wall   3.28
 MakeK time:  CPU      13.49 s  wall       3.38 s
 K construction time:  CPU 13.49 s  wall 3.38 s
Target Grid is being used
in dftxc.C, eleTot sum is:74.999674, tauTot is:0.000000
Fock build time:  36.26 s (CPU) 9.45 s (wall)
DIIS Errors:  Max 2.59E-05 RMS 1.19E-06

Current DIIS subspace size = 12
REM_GRID_RESTART_DIIS = 0

   12    -653.8040157051      1.19E-06  00000
Ite = 13 IFIte = 12 Thresh = 1.00e-11
Using dP: JK
 Building regular ol' J (Use_dP version)
 Job number = 20, Threshold = 1.00E-11
Integral type ranges set in mkLRange.C for JobNum: 20  <1-21|1-21>
         cpu   5.18 wall   1.31
 Building long-range K (w = 2.000e-01)
ML is being used
 Job number = 21, Threshold = 1.00E-11
Integral type ranges set in mkLRange.C for JobNum: 21  <1-21|1-21>
         cpu  11.96 wall   2.99
 MakeK time:  CPU      12.29 s  wall       3.08 s
 K construction time:  CPU 12.29 s  wall 3.08 s
 Building short-range K (Use_dP version)
ML is being used
 Job number = 21, Threshold = 1.00E-11
Integral type ranges set in mkLRange.C for JobNum: 21  <1-21|1-21>
         cpu  12.36 wall   3.09
 MakeK time:  CPU      12.65 s  wall       3.18 s
 K construction time:  CPU 12.65 s  wall 3.18 s
Target Grid is being used
in dftxc.C, eleTot sum is:74.999674, tauTot is:0.000000
Fock build time:  34.80 s (CPU) 9.02 s (wall)
DIIS Errors:  Max 1.91E-05 RMS 8.10E-07

Current DIIS subspace size = 13
REM_GRID_RESTART_DIIS = 0

   13    -653.8040168888      8.10E-07  00000
Ite = 14 IFIte = 13 Thresh = 1.00e-11
Using dP: JK
 Building regular ol' J (Use_dP version)
 Job number = 20, Threshold = 1.00E-11
Integral type ranges set in mkLRange.C for JobNum: 20  <1-21|1-21>
         cpu   5.06 wall   1.27
 Building long-range K (w = 2.000e-01)
ML is being used
 Job number = 21, Threshold = 1.00E-11
Integral type ranges set in mkLRange.C for JobNum: 21  <1-21|1-21>
         cpu  11.66 wall   2.91
 MakeK time:  CPU      11.97 s  wall       3.00 s
 K construction time:  CPU 11.97 s  wall 3.00 s
 Building short-range K (Use_dP version)
ML is being used
 Job number = 21, Threshold = 1.00E-11
Integral type ranges set in mkLRange.C for JobNum: 21  <1-21|1-21>
         cpu  12.04 wall   3.01
 MakeK time:  CPU      12.35 s  wall       3.10 s
 K construction time:  CPU 12.35 s  wall 3.10 s
Target Grid is being used
in dftxc.C, eleTot sum is:74.999674, tauTot is:0.000000
Fock build time:  33.72 s (CPU) 8.80 s (wall)
DIIS Errors:  Max 9.01E-06 RMS 4.06E-07

Current DIIS subspace size = 14
REM_GRID_RESTART_DIIS = 0

   14    -653.8040173408      4.06E-07  00000
Ite = 15 IFIte = 14 Thresh = 1.00e-11
Using dP: JK
 Building regular ol' J (Use_dP version)
 Job number = 20, Threshold = 1.00E-11
Integral type ranges set in mkLRange.C for JobNum: 20  <1-21|1-21>
         cpu   4.91 wall   1.23
 Building long-range K (w = 2.000e-01)
ML is being used
 Job number = 21, Threshold = 1.00E-11
Integral type ranges set in mkLRange.C for JobNum: 21  <1-21|1-21>
         cpu  11.23 wall   2.81
 MakeK time:  CPU      11.48 s  wall       2.89 s
 K construction time:  CPU 11.48 s  wall 2.89 s
 Building short-range K (Use_dP version)
ML is being used
 Job number = 21, Threshold = 1.00E-11
Integral type ranges set in mkLRange.C for JobNum: 21  <1-21|1-21>
         cpu  11.63 wall   2.91
 MakeK time:  CPU      11.97 s  wall       3.00 s
 K construction time:  CPU 11.97 s  wall 3.00 s
Target Grid is being used
in dftxc.C, eleTot sum is:74.999674, tauTot is:0.000000
Fock build time:  33.26 s (CPU) 8.58 s (wall)
DIIS Errors:  Max 5.21E-06 RMS 2.36E-07

Current DIIS subspace size = 15
REM_GRID_RESTART_DIIS = 0

   15    -653.8040174944      2.36E-07  00000
Ite = 16 IFIte = 0 Thresh = 1.00e-11
 Building regular ol' J (integral screening version)
 Job number = 20, Threshold = 1.00E-11
Integral type ranges set in mkLRange.C for JobNum: 20  <1-21|1-21>
         cpu   7.31 wall   1.83
 Building long-range K (w = 2.000e-01)
 Job number = 21, Threshold = 1.00E-11
Integral type ranges set in mkLRange.C for JobNum: 21  <1-21|1-21>
         cpu  17.90 wall   4.48
 MakeK time:  CPU      18.42 s  wall       4.61 s
 K construction time:  CPU 18.42 s  wall 4.61 s
 Building short-range K (Use_dP version)
 Job number = 21, Threshold = 1.00E-11
Integral type ranges set in mkLRange.C for JobNum: 21  <1-21|1-21>
         cpu  18.29 wall   4.57
 MakeK time:  CPU      18.62 s  wall       4.66 s
 K construction time:  CPU 18.62 s  wall 4.66 s
Target Grid is being used
in dftxc.C, eleTot sum is:74.999674, tauTot is:0.000000
Fock build time:  49.07 s (CPU) 12.55 s (wall)
DIIS Errors:  Max 1.95E-06 RMS 9.15E-08

Current DIIS subspace size = 15
REM_GRID_RESTART_DIIS = 0

   16    -653.8040175395      9.15E-08  00000
Ite = 17 IFIte = 1 Thresh = 1.00e-11
Using dP: JK
 Building regular ol' J (Use_dP version)
 Job number = 20, Threshold = 1.00E-11
Integral type ranges set in mkLRange.C for JobNum: 20  <1-21|1-21>
         cpu   4.48 wall   1.12
 Building long-range K (w = 2.000e-01)
ML is being used
 Job number = 21, Threshold = 1.00E-11
Integral type ranges set in mkLRange.C for JobNum: 21  <1-21|1-21>
         cpu  10.05 wall   2.51
 MakeK time:  CPU      10.31 s  wall       2.60 s
 K construction time:  CPU 10.31 s  wall 2.60 s
 Building short-range K (Use_dP version)
ML is being used
 Job number = 21, Threshold = 1.00E-11
Integral type ranges set in mkLRange.C for JobNum: 21  <1-21|1-21>
         cpu  10.39 wall   2.60
 MakeK time:  CPU      10.64 s  wall       2.69 s
 K construction time:  CPU 10.64 s  wall 2.69 s
Target Grid is being used
in dftxc.C, eleTot sum is:74.999674, tauTot is:0.000000
Fock build time:  30.28 s (CPU) 7.84 s (wall)
DIIS Errors:  Max 8.76E-07 RMS 3.41E-08

Current DIIS subspace size = 15
REM_GRID_RESTART_DIIS = 0

   17    -653.8040175455      3.41E-08  00000
Ite = 18 IFIte = 2 Thresh = 1.00e-11
Using dP: JK
 Building regular ol' J (Use_dP version)
 Job number = 20, Threshold = 1.00E-11
Integral type ranges set in mkLRange.C for JobNum: 20  <1-21|1-21>
         cpu   4.21 wall   1.05
 Building long-range K (w = 2.000e-01)
ML is being used
 Job number = 21, Threshold = 1.00E-11
Integral type ranges set in mkLRange.C for JobNum: 21  <1-21|1-21>
         cpu   9.25 wall   2.31
 MakeK time:  CPU       9.57 s  wall       2.40 s
 K construction time:  CPU 9.57 s  wall 2.40 s
 Building short-range K (Use_dP version)
ML is being used
 Job number = 21, Threshold = 1.00E-11
Integral type ranges set in mkLRange.C for JobNum: 21  <1-21|1-21>
         cpu   9.56 wall   2.39
 MakeK time:  CPU       9.89 s  wall       2.48 s
 K construction time:  CPU 9.89 s  wall 2.48 s
Target Grid is being used
in dftxc.C, eleTot sum is:74.999674, tauTot is:0.000000
Fock build time:  28.92 s (CPU) 8.60 s (wall)
DIIS Errors:  Max 3.72E-07 RMS 1.20E-08

Current DIIS subspace size = 15
REM_GRID_RESTART_DIIS = 0

   18    -653.8040175465      1.20E-08  00000
Ite = 19 IFIte = 3 Thresh = 1.00e-11
Using dP: JK
 Building regular ol' J (Use_dP version)
 Job number = 20, Threshold = 1.00E-11
Integral type ranges set in mkLRange.C for JobNum: 20  <1-21|1-21>
         cpu   3.73 wall   0.93
 Building long-range K (w = 2.000e-01)
ML is being used
 Job number = 21, Threshold = 1.00E-11
Integral type ranges set in mkLRange.C for JobNum: 21  <1-21|1-21>
         cpu   7.87 wall   1.97
 MakeK time:  CPU       7.97 s  wall       2.06 s
 K construction time:  CPU 7.97 s  wall 2.06 s
 Building short-range K (Use_dP version)
ML is being used
 Job number = 21, Threshold = 1.00E-11
Integral type ranges set in mkLRange.C for JobNum: 21  <1-21|1-21>
         cpu   8.12 wall   2.03
 MakeK time:  CPU       8.45 s  wall       2.12 s
 K construction time:  CPU 8.45 s  wall 2.12 s
Target Grid is being used
in dftxc.C, eleTot sum is:74.999674, tauTot is:0.000000
Fock build time:  24.76 s (CPU) 6.68 s (wall)
DIIS Errors:  Max 1.47E-07 RMS 5.71E-09

Current DIIS subspace size = 15
REM_GRID_RESTART_DIIS = 0

   19    -653.8040175466      5.71E-09  00000 Convergence criterion met
 ---------------------------------------
 <S^2> = 1.1212
 SCF time:  CPU 732.34 s  wall 191.27 s
 SCF   energy in the final basis set = -653.8040175466
 Total energy in the final basis set = -653.8040175466
Symmetry turned off temporarily
 Analysis of SCF Wavefunction
 
 --------------------------------------------------------------
                    Orbital Energies (a.u.)
 --------------------------------------------------------------
 
 Alpha MOs
 -- Occupied --
-66.293 -19.332 -14.457 -10.435 -10.381 -10.349 -10.339 -10.323
-10.321  -5.410  -3.754  -3.754  -3.753  -1.190  -1.011  -0.929
 -0.844  -0.815  -0.738  -0.663  -0.613  -0.585  -0.558  -0.555
 -0.536  -0.520  -0.504  -0.501  -0.487  -0.461  -0.454  -0.451
 -0.440  -0.437  -0.434  -0.410  -0.329  -0.327
 -- Virtual --
 -0.021   0.045   0.096   0.115   0.119   0.130   0.152   0.167
  0.197   0.204   0.219   0.223   0.230   0.247   0.256   0.265
  0.287   0.300   0.308   0.318   0.329   0.350   0.361   0.424
  0.430   0.557   0.564   0.582   0.593   0.612   0.624   0.631
  0.642   0.699   0.703   0.715   0.726   0.733   0.749   0.763
  0.770   0.783   0.798   0.813   0.843   0.853   0.858   0.902
  0.917   0.929   0.936   0.949   0.954   0.957   0.971   0.982
  1.005   1.013   1.017   1.050   1.066   1.105   1.111   1.147
  1.185   1.237   1.256   1.306   1.341   1.367   1.371   1.453
  1.512   1.544   1.581   1.584   1.621   1.634   1.643   1.685
  1.694   1.758   1.771   1.793   1.871   1.899   1.907   1.957
  1.991   2.013   2.017   2.061   2.064   2.074   2.083   2.085
  2.093   2.108   2.114   2.146   2.168   2.174   2.183   2.190
  2.222   2.229   2.284   2.300   2.316   2.363   2.367   2.400
  2.492   2.515   2.521   2.570   2.599   2.606   2.625   2.657
  2.745   2.753   2.789   2.841   2.850   2.859   2.875   2.878
  2.923   2.928   2.945   2.976   3.008   3.039   3.147   3.214
  3.275   3.371   3.386   3.472   3.487   3.529   3.533   3.895
  4.134   4.158   4.260   4.436   4.531   4.586   4.794
 
 Beta MOs
 -- Occupied --
-66.293 -19.336 -14.454 -10.440 -10.370 -10.344 -10.340 -10.323
-10.321  -5.410  -3.754  -3.754  -3.754  -1.199  -1.004  -0.912
 -0.833  -0.813  -0.727  -0.666  -0.616  -0.573  -0.564  -0.542
 -0.530  -0.526  -0.516  -0.495  -0.484  -0.458  -0.448  -0.440
 -0.437  -0.434  -0.419  -0.406  -0.311
 -- Virtual --
 -0.063  -0.018   0.041   0.097   0.116   0.120   0.146   0.161
  0.171   0.200   0.206   0.221   0.227   0.237   0.249   0.257
  0.275   0.290   0.308   0.313   0.319   0.341   0.351   0.363
  0.427   0.432   0.563   0.571   0.584   0.601   0.613   0.628
  0.635   0.644   0.698   0.707   0.717   0.730   0.737   0.752
  0.765   0.771   0.783   0.803   0.816   0.843   0.857   0.873
  0.906   0.918   0.933   0.940   0.951   0.957   0.960   0.974
  0.984   1.007   1.015   1.027   1.052   1.069   1.104   1.116
  1.146   1.192   1.239   1.257   1.318   1.349   1.373   1.379
  1.464   1.509   1.549   1.575   1.582   1.624   1.635   1.643
  1.688   1.699   1.759   1.778   1.794   1.873   1.907   1.921
  1.980   2.004   2.014   2.027   2.063   2.066   2.084   2.088
  2.099   2.104   2.115   2.135   2.148   2.171   2.178   2.186
  2.192   2.221   2.233   2.285   2.301   2.319   2.366   2.381
  2.394   2.501   2.520   2.525   2.568   2.610   2.622   2.627
  2.659   2.743   2.755   2.792   2.846   2.853   2.860   2.878
  2.889   2.914   2.933   2.952   2.980   3.014   3.034   3.147
  3.216   3.278   3.377   3.391   3.474   3.488   3.531   3.535
  3.889   4.131   4.165   4.278   4.449   4.531   4.586   4.818
 --------------------------------------------------------------
 
          Ground-State Mulliken Net Atomic Charges

     Atom                 Charge (a.u.)    Spin (a.u.)
  --------------------------------------------------------
      1 C                     0.315912      -0.360181
      2 C                    -0.381437       0.579207
      3 C                    -0.004031       0.857214
      4 C                    -0.389601      -0.042987
      5 H                     0.144717       0.004411
      6 H                     0.156181       0.004956
      7 H                     0.158280       0.044508
      8 C                     0.313274      -0.151031
      9 C                    -0.391252      -0.043047
     10 H                     0.157942       0.044898
     11 H                     0.163711       0.004460
     12 H                     0.142731       0.004903
     13 N                    -0.450440       0.213702
     14 O                    -0.307470      -0.145330
     15 Si                    0.458129      -0.027706
     16 H                    -0.098470       0.032210
     17 H                    -0.092194       0.006988
     18 H                    -0.085336       0.002042
     19 H                     0.189355      -0.029219
  --------------------------------------------------------
  Sum of atomic charges =    -0.000000
  Sum of spin   charges =     1.000000

 -----------------------------------------------------------------
                    Cartesian Multipole Moments
 -----------------------------------------------------------------
    Charge (ESU x 10^10)
                -0.0000
    Dipole Moment (Debye)
         X      -2.2860      Y       0.9257      Z       4.0206
       Tot       4.7168
    Quadrupole Moments (Debye-Ang)
        XX     -68.7483     XY      -1.1892     YY     -64.5255
[...]
         cpu  14.14 wall   3.54
 MakeK time:  CPU      14.47 s  wall       3.62 s
 K construction time:  CPU 14.47 s  wall 3.62 s
Target Grid is being used
in dftxc.C, eleTot sum is:75.000253, tauTot is:0.000000
Fock build time:  39.31 s (CPU) 10.18 s (wall)
DIIS Errors:  Max 1.21E-05 RMS 5.58E-07

Current DIIS subspace size = 7
REM_GRID_RESTART_DIIS = 0

    7    -653.9071911917      5.58E-07  00000
Ite = 8 IFIte = 7 Thresh = 1.00e-11
Using dP: JK
 Building regular ol' J (Use_dP version)
 Job number = 20, Threshold = 1.00E-11
Integral type ranges set in mkLRange.C for JobNum: 20  <1-21|1-21>
         cpu   5.76 wall   1.44
 Building long-range K (w = 2.000e-01)
ML is being used
 Job number = 21, Threshold = 1.00E-11
Integral type ranges set in mkLRange.C for JobNum: 21  <1-21|1-21>
         cpu  13.19 wall   3.30
 MakeK time:  CPU      13.41 s  wall       3.39 s
 K construction time:  CPU 13.41 s  wall 3.39 s
 Building short-range K (Use_dP version)
ML is being used
 Job number = 21, Threshold = 1.00E-11
Integral type ranges set in mkLRange.C for JobNum: 21  <1-21|1-21>
         cpu  13.61 wall   3.40
 MakeK time:  CPU      13.87 s  wall       3.49 s
 K construction time:  CPU 13.87 s  wall 3.49 s
Target Grid is being used
in dftxc.C, eleTot sum is:75.000253, tauTot is:0.000000
Fock build time:  38.30 s (CPU) 9.85 s (wall)
DIIS Errors:  Max 7.82E-06 RMS 3.14E-07

Current DIIS subspace size = 8
REM_GRID_RESTART_DIIS = 0

    8    -653.9071912040      3.14E-07  00000
Ite = 9 IFIte = 8 Thresh = 1.00e-11
Using dP: JK
 Building regular ol' J (Use_dP version)
 Job number = 20, Threshold = 1.00E-11
Integral type ranges set in mkLRange.C for JobNum: 20  <1-21|1-21>
         cpu   5.40 wall   1.35
 Building long-range K (w = 2.000e-01)
ML is being used
 Job number = 21, Threshold = 1.00E-11
Integral type ranges set in mkLRange.C for JobNum: 21  <1-21|1-21>
         cpu  12.13 wall   3.03
 MakeK time:  CPU      12.46 s  wall       3.12 s
 K construction time:  CPU 12.46 s  wall 3.12 s
 Building short-range K (Use_dP version)
ML is being used
 Job number = 21, Threshold = 1.00E-11
Integral type ranges set in mkLRange.C for JobNum: 21  <1-21|1-21>
         cpu  12.50 wall   3.13
 MakeK time:  CPU      12.81 s  wall       3.21 s
 K construction time:  CPU 12.81 s  wall 3.21 s
Target Grid is being used
in dftxc.C, eleTot sum is:75.000253, tauTot is:0.000000
Fock build time:  35.49 s (CPU) 9.22 s (wall)
DIIS Errors:  Max 4.63E-06 RMS 1.65E-07

Current DIIS subspace size = 9
REM_GRID_RESTART_DIIS = 0

    9    -653.9071912067      1.65E-07  00000
Ite = 10 IFIte = 9 Thresh = 1.00e-11
Using dP: JK
 Building regular ol' J (Use_dP version)
 Job number = 20, Threshold = 1.00E-11
Integral type ranges set in mkLRange.C for JobNum: 20  <1-21|1-21>
         cpu   5.09 wall   1.27
 Building long-range K (w = 2.000e-01)
ML is being used
 Job number = 21, Threshold = 1.00E-11
Integral type ranges set in mkLRange.C for JobNum: 21  <1-21|1-21>
         cpu  11.23 wall   2.81
 MakeK time:  CPU      11.56 s  wall       2.90 s
 K construction time:  CPU 11.56 s  wall 2.90 s
 Building short-range K (Use_dP version)
ML is being used
 Job number = 21, Threshold = 1.00E-11
Integral type ranges set in mkLRange.C for JobNum: 21  <1-21|1-21>
         cpu  11.60 wall   2.90
 MakeK time:  CPU      11.89 s  wall       3.00 s
 K construction time:  CPU 11.89 s  wall 3.00 s
Target Grid is being used
in dftxc.C, eleTot sum is:75.000253, tauTot is:0.000000
Fock build time:  33.55 s (CPU) 8.71 s (wall)
DIIS Errors:  Max 2.70E-06 RMS 9.32E-08

Current DIIS subspace size = 10
REM_GRID_RESTART_DIIS = 0

   10    -653.9071912074      9.32E-08  00000
Ite = 11 IFIte = 10 Thresh = 1.00e-11
Using dP: JK
 Building regular ol' J (Use_dP version)
 Job number = 20, Threshold = 1.00E-11
Integral type ranges set in mkLRange.C for JobNum: 20  <1-21|1-21>
         cpu   4.77 wall   1.19
 Building long-range K (w = 2.000e-01)
ML is being used
 Job number = 21, Threshold = 1.00E-11
Integral type ranges set in mkLRange.C for JobNum: 21  <1-21|1-21>
         cpu  10.35 wall   2.59
 MakeK time:  CPU      10.62 s  wall       2.68 s
 K construction time:  CPU 10.62 s  wall 2.68 s
 Building short-range K (Use_dP version)
ML is being used
 Job number = 21, Threshold = 1.00E-11
Integral type ranges set in mkLRange.C for JobNum: 21  <1-21|1-21>
         cpu  10.67 wall   2.67
 MakeK time:  CPU      11.01 s  wall       2.76 s
 K construction time:  CPU 11.01 s  wall 2.76 s
Target Grid is being used
in dftxc.C, eleTot sum is:75.000253, tauTot is:0.000000
Fock build time:  31.22 s (CPU) 8.16 s (wall)
DIIS Errors:  Max 7.57E-07 RMS 2.75E-08

Current DIIS subspace size = 11
REM_GRID_RESTART_DIIS = 0

   11    -653.9071912076      2.75E-08  00000
Ite = 12 IFIte = 11 Thresh = 1.00e-11
Using dP: JK
 Building regular ol' J (Use_dP version)
 Job number = 20, Threshold = 1.00E-11
Integral type ranges set in mkLRange.C for JobNum: 20  <1-21|1-21>
         cpu   4.40 wall   1.10
 Building long-range K (w = 2.000e-01)
ML is being used
 Job number = 21, Threshold = 1.00E-11
Integral type ranges set in mkLRange.C for JobNum: 21  <1-21|1-21>
         cpu   9.26 wall   2.32
 MakeK time:  CPU       9.59 s  wall       2.40 s
 K construction time:  CPU 9.59 s  wall 2.40 s
 Building short-range K (Use_dP version)
ML is being used
 Job number = 21, Threshold = 1.00E-11
Integral type ranges set in mkLRange.C for JobNum: 21  <1-21|1-21>
         cpu   9.55 wall   2.39
 MakeK time:  CPU       9.89 s  wall       2.48 s
 K construction time:  CPU 9.89 s  wall 2.48 s
Target Grid is being used
in dftxc.C, eleTot sum is:75.000253, tauTot is:0.000000
Fock build time:  28.74 s (CPU) 7.53 s (wall)
DIIS Errors:  Max 4.08E-07 RMS 9.62E-09

Current DIIS subspace size = 12
REM_GRID_RESTART_DIIS = 0

   12    -653.9071912076      9.62E-09  00000 Convergence criterion met
 ---------------------------------------
 <S^2> = 0.7690
 SCF time:  CPU 512.23 s  wall 132.14 s
 SCF   energy in the final basis set = -653.9071912076
 Total energy in the final basis set = -653.9071912076
Symmetry turned off temporarily
 Analysis of SCF Wavefunction
 
 --------------------------------------------------------------
                    Orbital Energies (a.u.)
 --------------------------------------------------------------
 
 Alpha MOs
 -- Occupied --
-66.290 -19.347 -14.454 -10.440 -10.360 -10.333 -10.316 -10.315
-10.310  -5.406  -3.751  -3.750  -3.750  -1.227  -1.006  -0.929
 -0.884  -0.817  -0.753  -0.658  -0.621  -0.588  -0.584  -0.569
 -0.541  -0.536  -0.531  -0.495  -0.491  -0.468  -0.451  -0.446
 -0.444  -0.438  -0.429  -0.405  -0.331  -0.292
 -- Virtual --
  0.038   0.101   0.104   0.112   0.128   0.159   0.167   0.172
  0.188   0.211   0.229   0.238   0.244   0.246   0.248   0.264
  0.267   0.316   0.335   0.347   0.362   0.375   0.429   0.434
  0.478   0.543   0.561   0.590   0.597   0.612   0.623   0.647
  0.696   0.714   0.722   0.736   0.744   0.758   0.765   0.786
  0.799   0.812   0.835   0.848   0.863   0.882   0.895   0.922
  0.934   0.947   0.954   0.966   0.987   0.990   1.001   1.014
  1.029   1.039   1.062   1.098   1.136   1.152   1.171   1.191
  1.209   1.242   1.298   1.313   1.358   1.377   1.404   1.452
  1.487   1.548   1.587   1.612   1.637   1.647   1.704   1.715
  1.758   1.803   1.856   1.861   1.880   1.917   1.952   2.001
  2.009   2.035   2.048   2.067   2.073   2.077   2.095   2.113
  2.119   2.132   2.157   2.172   2.188   2.200   2.206   2.217
  2.235   2.239   2.297   2.319   2.325   2.367   2.371   2.432
  2.471   2.546   2.567   2.574   2.615   2.629   2.678   2.763
  2.781   2.825   2.861   2.868   2.883   2.885   2.913   2.967
  3.001   3.011   3.024   3.073   3.136   3.174   3.246   3.304
  3.332   3.407   3.467   3.491   3.506   3.528   3.569   4.205
  4.233   4.330   4.459   4.582   4.598   4.780   4.850
 
 Beta MOs
 -- Occupied --
-66.290 -19.347 -14.447 -10.440 -10.351 -10.336 -10.316 -10.316
-10.310  -5.406  -3.751  -3.750  -3.750  -1.227  -0.994  -0.909
 -0.883  -0.814  -0.741  -0.658  -0.620  -0.586  -0.579  -0.560
 -0.537  -0.532  -0.523  -0.489  -0.487  -0.466  -0.444  -0.438
 -0.437  -0.432  -0.415  -0.399  -0.329
 -- Virtual --
 -0.024   0.038   0.102   0.105   0.115   0.129   0.165   0.169
  0.186   0.193   0.213   0.233   0.238   0.247   0.250   0.256
  0.266   0.278   0.316   0.336   0.349   0.368   0.379   0.429
  0.436   0.483   0.544   0.567   0.591   0.598   0.613   0.625
  0.654   0.699   0.717   0.724   0.738   0.747   0.760   0.776
  0.794   0.801   0.819   0.837   0.849   0.868   0.888   0.899
  0.928   0.937   0.951   0.958   0.969   0.988   0.994   1.004
  1.016   1.031   1.041   1.066   1.102   1.139   1.153   1.171
  1.191   1.210   1.243   1.306   1.316   1.367   1.385   1.422
  1.453   1.488   1.549   1.589   1.614   1.638   1.652   1.705
  1.720   1.760   1.807   1.862   1.866   1.883   1.938   1.965
  2.003   2.014   2.036   2.069   2.071   2.079   2.083   2.100
  2.116   2.123   2.133   2.161   2.174   2.193   2.205   2.210
  2.221   2.239   2.241   2.297   2.319   2.325   2.368   2.373
  2.450   2.491   2.550   2.568   2.574   2.626   2.633   2.683
  2.766   2.784   2.833   2.866   2.874   2.884   2.889   2.917
  2.967   3.010   3.011   3.030   3.073   3.140   3.174   3.248
  3.305   3.335   3.410   3.467   3.494   3.506   3.531   3.570
  4.219   4.248   4.334   4.459   4.580   4.599   4.795   4.851
 --------------------------------------------------------------
 
          Ground-State Mulliken Net Atomic Charges

     Atom                 Charge (a.u.)    Spin (a.u.)
  --------------------------------------------------------
      1 C                     0.481604      -0.004555
      2 C                    -0.494654       0.013616
      3 C                     0.030126       0.822273
      4 C                    -0.386399      -0.061958
      5 H                     0.144259       0.029119
      6 H                     0.158522       0.001746
      7 H                     0.149145       0.034851
      8 C                     0.302748      -0.232537
      9 C                    -0.395045      -0.061546
     10 H                     0.151725       0.037259
     11 H                     0.170989       0.002114
     12 H                     0.136466       0.027042
     13 N                    -0.470415       0.395331
     14 O                    -0.388282      -0.001312
     15 Si                    0.495558      -0.001370
     16 H                    -0.110092       0.000215
     17 H                    -0.099615       0.000265
     18 H                    -0.070159      -0.000085
     19 H                     0.193518      -0.000468
  --------------------------------------------------------
  Sum of atomic charges =     0.000000
  Sum of spin   charges =     1.000000

 -----------------------------------------------------------------
                    Cartesian Multipole Moments
 -----------------------------------------------------------------
    Charge (ESU x 10^10)
                 0.0000
    Dipole Moment (Debye)
         X      -0.6872      Y       0.2846      Z       4.7413
       Tot       4.7993
    Quadrupole Moments (Debye-Ang)
        XX     -60.1176     XY      -0.0185     YY     -62.5167
        XZ       5.4067     YZ      -0.1030     ZZ     -66.6411
    Octopole Moments (Debye-Ang^2)
       XXX      20.3977    XXY      -7.1806    XYY       5.0951
       YYY      -6.7717    XXZ      15.9467    XYZ       5.4868
       YYZ       8.0489    XZZ      -9.7968    YZZ      -9.9174
       ZZZ      34.2370
    Hexadecapole Moments (Debye-Ang^3)
      XXXX   -1184.4000   XXXY      18.2727   XXYY    -284.3848
      XYYY      28.1208   YYYY    -577.0444   XXXZ     -31.7738
      XXYZ       4.6926   XYYZ     -10.6724   YYYZ      -3.2144
      XXZZ    -273.4162   XYZZ       5.7654   YYZZ    -170.8108
      XZZZ     -22.0564   YZZZ      15.3161   ZZZZ    -508.9765
 -----------------------------------------------------------------
 Calculating analytic gradient of the SCF energy
 Job number = 111, Threshold = 1.00E-11
Integral type ranges set in mkLRange.C for JobNum: 11  <1-21|22-22>
Construct unmodified Jx
 Job number = 120, Threshold = 1.00E-11
Integral type ranges set in mkLRange.C for JobNum: 20  <1-21|1-21>
         cpu  12.41 wall   3.10
Construct long-range Kx
ML is being used
 Job number = 121, Threshold = 1.00E-11
Integral type ranges set in mkLRange.C for JobNum: 21  <1-21|1-21>
         cpu 116.21 wall  29.06
 MakeK time:  CPU     116.73 s  wall      29.41 s
 K construction time:  CPU 116.74 s  wall 29.41 s
Construct short-range Kx
ML is being used
 Job number = 121, Threshold = 1.00E-11
Integral type ranges set in mkLRange.C for JobNum: 21  <1-21|1-21>
         cpu 116.69 wall  29.18
 MakeK time:  CPU     117.22 s  wall      29.53 s
 K construction time:  CPU 117.22 s  wall 29.53 s
in dftxc.C, eleTot sum is:75.000253, tauTot is:0.000000
 Gradient of SCF Energy
            1           2           3           4           5           6
    1   0.0042326   0.0005760  -0.0047215   0.0003444  -0.0011500  -0.0008443
    2   0.0040510   0.0000833  -0.0042828   0.0008155  -0.0003485   0.0005570
    3   0.0014932   0.0008678  -0.0020304   0.0002144   0.0002003  -0.0012691
            7           8           9          10          11          12
    1   0.0009234   0.0010147  -0.0001386  -0.0004401   0.0000287   0.0003526
    2   0.0001542  -0.0000879  -0.0003822  -0.0004900  -0.0004478   0.0002071
    3   0.0005379   0.0002920  -0.0000540   0.0000333   0.0006350  -0.0004606
           13          14          15          16          17          18
    1  -0.0006801   0.0003907   0.0001402   0.0001302   0.0000752  -0.0000785
    2   0.0003952  -0.0000445  -0.0006897   0.0001596  -0.0004087   0.0006530
    3   0.0008915  -0.0006800   0.0001773  -0.0001502   0.0001714  -0.0004257
           19
    1  -0.0001555
    2   0.0001060
    3  -0.0004441
 Max gradient component =       4.722E-03
 RMS gradient           =       1.290E-03
 Gradient time:  CPU 261.63 s  wall 68.74 s
 ------------------------------------------------------------------------------
                     drvman        : Timing summary (seconds)
 ------------------------------------------------------------------------------
     job step          cpu (% of tot)      sys (% of tot)     wall (% of tot)
 ------------------------------------------------------------------------------
 ------------------------------------------------------------------------------
   Grand Totals     0.2616E+03          0.3800E-04          0.6874E+02
 ------------------------------------------------------------------------------
 Geometry Optimization Parameters
   NAtoms,    NIC,     NZ,  NCons,   NDum,   NFix, NCnnct, MaxDiis
       19     124       0       1       0       0       0       0

 Cartesian Hessian Update
 Hessian Updated using BFGS Update


** CONSTRAINED OPTIMIZATION IN CARTESIAN COORDINATES **
   Searching for a Minimum

   Optimization Cycle:  50

                       Coordinates (Angstroms)
     ATOM                X               Y               Z
      1  C        -0.8239658879   -1.4418274168   -0.0097701861
      2  C        -1.6433694770   -0.5783523163    0.5449300077
      3  C         1.5033944732    0.3992259673    0.4311070614
      4  C         1.0396729428    1.6058753668    1.1913024392
      5  H         0.2760353878    1.3214193401    1.9266479729
      6  H         0.6119588900    2.3607064280    0.5260984899
      7  H         1.8791257984    2.0561509154    1.7401505362
      8  C         1.5197034282    0.4510588254   -0.9610324350
      9  C         2.0817211391   -0.7661950279    1.1712807592
     10  H         3.0111993234   -0.4735823487    1.6758668008
     11  H         2.2907965915   -1.6123848469    0.5174745106
     12  H         1.3850009020   -1.0887312783    1.9532095702
     13  N         1.4746086830    0.5221620104   -2.1294425892
     14  O        -0.1122337753   -2.2049967479   -0.5271417998
     15  Si       -2.3271624596    0.8465372885   -0.4319968701
     16  H        -1.9542526001    2.1405979281    0.1973752296
     17  H        -3.8097727890    0.7622920727   -0.4641846576
     18  H        -1.7815320776    0.7985545986   -1.8089299518
     19  H        -1.9727504400   -0.7951465683    1.5554122126
   Point Group: c1    Number of degrees of freedom:    51


   Energy is   -653.907191208

              Constraints and their Current Values
                                        Value     Constraint
   Distance(Angs):        1   3             3.000076     3.000000

   Using Lagrange Multiplier Algorithm


 Translations and Rotations Projected Out of Hessian

 52 Hessian modes will be used to form the next step
  Hessian Eigenvalues:
    -0.960050    0.000720    0.001809    0.005767    0.008590    0.015797
     0.027282    0.058358    0.084871    0.116148    0.132161    0.193394
     0.227103    0.284265    0.366605    0.538279    0.546640    0.687150
     0.783232    0.808015    0.824823    0.918455    0.927274    0.969654
     0.997507    1.000015    1.000033    1.000049    1.000071    1.000094
     1.000165    1.000222    1.000354    1.000659    1.001018    1.001236
     1.001555    1.003173    1.004555    1.006668    1.010773    1.016768
     1.026052    1.052475    1.067443    1.122113    1.289948    1.463336
     1.609796    2.192392    2.925744    3.854540

 Minimum Search - Taking P-RFO Step
 Searching for Lamda that Maximizes Along the Constraint modes Only
 Value Taken    Lamda =   0.00000000
 Searching for Lamda that Minimizes Along All other modes
 Value Taken    Lamda =  -0.00003664
 Step Taken.  Stepsize is  0.133897

                             Maximum     Tolerance    Cnvgd?
         Gradient           0.001269      0.000300      NO
         Displacement       0.051929      0.001200      NO
         Energy change     -0.000051      0.000001      NO

 ----------------------------------------------------------------
             Standard Nuclear Orientation (Angstroms)
    I     Atom           X                Y                Z
 ----------------------------------------------------------------
    1      C      -0.8279608456    -1.4416173002     0.0073273275
    2      C      -1.6498338356    -0.5734067505     0.5511305760
    3      C       1.5030826360     0.3993070777     0.4287825336
    4      C       1.0389394098     1.6009849354     1.1967597078
    5      H       0.2697372006     1.3127001657     1.9250861187
    6      H       0.6167262647     2.3625751338     0.5359213517
    7      H       1.8765060445     2.0431469092     1.7552741056
    8      C       1.5079679940     0.4551767133    -0.9631414333
    9      C       2.0917501319    -0.7653345010     1.1631514163
   10      H       3.0206441267    -0.4680612846     1.6671720638
   11      H       2.3044705007    -1.6067600056     0.5042576709
   12      H       1.3975936296    -1.0948791850     1.9449699064
   13      N       1.4532991544     0.5269378460    -2.1310760631
   14      O      -0.1134920489    -2.2093143537    -0.4996622383
   15      Si     -2.3226288587     0.8475750756    -0.4381387551
   16      H      -1.9558029984     2.1438961464     0.1904033471
   17      H      -3.8054058536     0.7620418764    -0.4854035834
   18      H      -1.7636183637     0.7944006355    -1.8118651394
   19      H      -1.9937962351    -0.7860049442     1.5574081878
 ----------------------------------------------------------------
 Molecular Point Group                 C1    NOp =  1
 Largest Abelian Subgroup              C1    NOp =  1
 Nuclear Repulsion Energy =   480.4385415577 hartrees
 There are       38 alpha and       37 beta electrons


 *******************************************
 **  MAXIMUM OPTIMIZATION CYCLES REACHED  **
 *******************************************

 Q-Chem fatal error occurred in module 0, line  440:

 Maximum optimization cycles reached

 Mon Dec 15 18:49:37 2014
